#VDH_NBS 
 4940  atoms
 4  atom types
 -2.0 45.666300  xlo xhi 
 -2.0 45.666300  ylo yhi 
 -2.0 45.666300  zlo zhi 
 Masses 
 
 1  22.98900 
 2  10.81100 
 3  28.08550 
 4  15.99940 

 Atoms

      1      1 0.4725000000 10.5528200000  3.4821600000  27.1333600000 
      2      1 0.4725000000 1.7347400000  40.1546900000  23.9385300000 
      3      1 0.4725000000 41.4452800000  8.1191500000  7.2246700000 
      4      1 0.4725000000 16.0416000000  24.4365700000  39.5263800000 
      5      1 0.4725000000 13.7346500000  28.5446000000  19.9139400000 
      6      1 0.4725000000 27.8518900000  24.3212800000  18.9471500000 
      7      1 0.4725000000 11.6008900000  33.7456500000  33.7935700000 
      8      1 0.4725000000 9.4845900000  37.0244400000  11.1780900000 
      9      1 0.4725000000 27.0943100000  20.7725800000  40.4106100000 
     10      1 0.4725000000 11.6248400000  17.6206200000  24.4973900000 
     11      1 0.4725000000 3.9869400000  15.1329300000  35.6430200000 
     12      1 0.4725000000 14.5517000000  32.1573900000  17.8598500000 
     13      1 0.4725000000 6.2413000000  2.6296100000  6.4087000000 
     14      1 0.4725000000 9.2931000000  39.9597900000  20.2293900000 
     15      1 0.4725000000 14.8365500000  14.3650900000  21.5982500000 
     16      1 0.4725000000 32.0939500000  30.1219100000  30.9864800000 
     17      1 0.4725000000 40.4253800000  32.2577800000  18.4833900000 
     18      1 0.4725000000 27.9501200000  29.2890400000  19.4415200000 
     19      1 0.4725000000 40.9654100000  17.9648700000  21.6428900000 
     20      1 0.4725000000 7.1651600000  29.2602500000  17.5497800000 
     21      1 0.4725000000 39.2166600000  6.7626900000  11.2012000000 
     22      1 0.4725000000 17.6437600000  0.4156800000  0.2200000000 
     23      1 0.4725000000 23.4767100000  31.2179600000  10.7873300000 
     24      1 0.4725000000 32.1368600000  23.3298200000  19.8514600000 
     25      1 0.4725000000 9.5180400000  25.5910300000  19.4720500000 
     26      1 0.4725000000 12.5169100000  35.6041500000  21.6315000000 
     27      1 0.4725000000 12.9595200000  37.9732700000  9.5746100000 
     28      1 0.4725000000 4.0456800000  29.8956600000  17.5793100000 
     29      1 0.4725000000 27.9141500000  24.7497200000  15.8794700000 
     30      1 0.4725000000 32.7741200000  10.0304300000  3.9095400000 
     31      1 0.4725000000 15.7771100000  6.0567300000  9.5142500000 
     32      1 0.4725000000 11.1768500000  14.4104900000  32.8813600000 
     33      1 0.4725000000 38.2327700000  24.5293300000  2.3452000000 
     34      1 0.4725000000 26.2085000000  40.5290700000  13.2075700000 
     35      1 0.4725000000 1.6168700000  19.2049500000  2.0595300000 
     36      1 0.4725000000 6.8090700000  33.8797900000  42.4393500000 
     37      1 0.4725000000 13.1976400000  38.7056700000  30.3705100000 
     38      1 0.4725000000 3.3477900000  11.9538800000  20.9488400000 
     39      1 0.4725000000 20.4448400000  23.0694300000  1.0446700000 
     40      1 0.4725000000 23.7592500000  10.7189600000  38.3491000000 
     41      1 0.4725000000 12.8599400000  37.0080200000  38.7014700000 
     42      1 0.4725000000 26.2112600000  41.1431300000  23.6266700000 
     43      1 0.4725000000 37.1238500000  11.0342700000  41.6390200000 
     44      1 0.4725000000 31.8523200000  22.6687200000  23.0394800000 
     45      1 0.4725000000 39.7132300000  2.0830200000  42.0595200000 
     46      1 0.4725000000 39.8969400000  19.2517900000  3.9691400000 
     47      1 0.4725000000 14.2606400000  38.9467200000  2.6486200000 
     48      1 0.4725000000 16.4544100000  3.1567700000  10.3103800000 
     49      1 0.4725000000 12.9728700000  12.3550400000  7.8278200000 
     50      1 0.4725000000 13.1798400000  13.8611700000  13.2258500000 
     51      1 0.4725000000 24.5383600000  27.7951600000  3.6477600000 
     52      1 0.4725000000 36.7226800000  5.7614500000  12.6820800000 
     53      1 0.4725000000 10.4277100000  29.8302500000  26.6591200000 
     54      1 0.4725000000 37.9821400000  33.0353900000  34.2937900000 
     55      1 0.4725000000 3.7293100000  11.2354900000  11.1792100000 
     56      1 0.4725000000 39.6956100000  36.0222500000  7.0237200000 
     57      1 0.4725000000 8.1659500000  41.0293200000  42.3408400000 
     58      1 0.4725000000 27.8882300000  38.2554100000  17.3663400000 
     59      1 0.4725000000 6.9172900000  36.4339700000  39.3293900000 
     60      1 0.4725000000 12.1070200000  15.8803400000  30.1969800000 
     61      1 0.4725000000 22.5756500000  40.2451700000  9.5529200000 
     62      1 0.4725000000 39.4136300000  19.6321000000  24.0002700000 
     63      1 0.4725000000 41.9655300000  33.8264000000  34.6163300000 
     64      1 0.4725000000 14.4755300000  17.9795000000  33.9036600000 
     65      1 0.4725000000 8.3764100000  28.3049600000  28.5493000000 
     66      1 0.4725000000 37.7788900000  35.9998600000  15.5608000000 
     67      1 0.4725000000 23.3921500000  6.4594900000  6.7064900000 
     68      1 0.4725000000 5.9419700000  23.6974200000  15.9634100000 
     69      1 0.4725000000 22.0849300000  21.1937500000  19.7223000000 
     70      1 0.4725000000 8.2545000000  26.5347700000  0.0517200000 
     71      1 0.4725000000 34.3410200000  1.2955400000  32.8047400000 
     72      1 0.4725000000 0.3045800000  24.6067400000  18.9783600000 
     73      1 0.4725000000 1.7463000000  35.0321100000  38.2640300000 
     74      1 0.4725000000 5.8605300000  20.5054200000  4.8866600000 
     75      1 0.4725000000 16.7655600000  34.5300300000  31.6253700000 
     76      1 0.4725000000 17.4096100000  38.9748800000  40.6641700000 
     77      1 0.4725000000 23.7975600000  38.1204500000  21.3590800000 
     78      1 0.4725000000 9.2523200000  40.5215700000  31.5656700000 
     79      1 0.4725000000 31.3503400000  26.2059100000  18.4433400000 
     80      1 0.4725000000 16.5195200000  14.6653500000  3.3133300000 
     81      1 0.4725000000 34.7202300000  41.5512300000  41.2853900000 
     82      1 0.4725000000 32.6385600000  0.1244400000  2.6831700000 
     83      1 0.4725000000 24.1849800000  34.4788500000  8.4447500000 
     84      1 0.4725000000 34.2650900000  5.0132500000  41.1995300000 
     85      1 0.4725000000 23.8945700000  8.5876900000  30.2407400000 
     86      1 0.4725000000 16.1260000000  11.5344800000  33.7890200000 
     87      1 0.4725000000 36.6783800000  39.6146800000  27.8567200000 
     88      1 0.4725000000 13.5610100000  22.9267800000  11.1005500000 
     89      1 0.4725000000 31.7950100000  35.3295300000  37.8866300000 
     90      1 0.4725000000 4.0207300000  21.2817100000  2.3158300000 
     91      1 0.4725000000 7.6750000000  35.5380900000  2.2484400000 
     92      1 0.4725000000 0.1958100000  6.0099500000  41.9289700000 
     93      1 0.4725000000 21.2957200000  6.7298700000  29.9585900000 
     94      1 0.4725000000 13.3601500000  2.3776100000  5.1329500000 
     95      1 0.4725000000 23.7821700000  40.3373200000  34.5177500000 
     96      1 0.4725000000 36.5670700000  10.2336100000  26.7371200000 
     97      1 0.4725000000 2.4812700000  18.7918800000  16.6597200000 
     98      1 0.4725000000 27.0609000000  28.0479300000  41.6811400000 
     99      1 0.4725000000 18.2525300000  28.9601200000  20.4703800000 
    100      1 0.4725000000 0.5296900000  33.4135700000  3.2270200000 
    101      1 0.4725000000 2.4422900000  34.8554500000  25.5349000000 
    102      1 0.4725000000 29.4032300000  15.3757000000  8.7892000000 
    103      1 0.4725000000 15.5230500000  32.4884000000  12.8283800000 
    104      1 0.4725000000 1.0093700000  28.9895100000  8.6002500000 
    105      1 0.4725000000 41.1286200000  31.4218900000  32.7081000000 
    106      1 0.4725000000 23.9676400000  30.2940800000  5.6577000000 
    107      1 0.4725000000 24.3875900000  42.1139200000  42.1124600000 
    108      1 0.4725000000 36.5633300000  35.6751800000  33.7141400000 
    109      1 0.4725000000 42.0080200000  19.5853700000  26.0089200000 
    110      1 0.4725000000 25.9625800000  12.2637300000  36.6682100000 
    111      1 0.4725000000 1.5966400000  7.4698800000  11.2381000000 
    112      1 0.4725000000 38.8709600000  12.5122600000  22.5732500000 
    113      1 0.4725000000 2.7177100000  19.9512100000  34.7833700000 
    114      1 0.4725000000 24.6391700000  24.3640000000  29.0086500000 
    115      1 0.4725000000 28.9877900000  38.0097300000  22.9081800000 
    116      1 0.4725000000 5.2077700000  14.0346400000  32.9856600000 
    117      1 0.4725000000 35.2501900000  6.2390000000  9.8803400000 
    118      1 0.4725000000 0.4323800000  5.4502500000  3.6177700000 
    119      1 0.4725000000 22.6132600000  18.1874700000  18.4706000000 
    120      1 0.4725000000 30.7122600000  37.0555900000  31.0751900000 
    121      1 0.4725000000 3.3310500000  23.8646500000  6.3165400000 
    122      1 0.4725000000 37.9781700000  26.8651500000  17.6274800000 
    123      1 0.4725000000 34.2916900000  8.1284900000  34.0856800000 
    124      1 0.4725000000 2.3576800000  5.1755800000  35.6636400000 
    125      1 0.4725000000 32.1582900000  29.5991300000  39.0835900000 
    126      1 0.4725000000 3.0590900000  13.1427600000  40.2152700000 
    127      1 0.4725000000 34.1678200000  38.5830200000  25.8416200000 
    128      1 0.4725000000 20.2752400000  40.9515700000  30.2287400000 
    129      1 0.4725000000 4.5115200000  21.7004700000  24.0098000000 
    130      1 0.4725000000 14.4906600000  22.0053900000  24.8177800000 
    131      1 0.4725000000 32.4127400000  11.6288600000  37.0241700000 
    132      1 0.4725000000 42.5597500000  21.0523300000  4.1026100000 
    133      1 0.4725000000 29.7156300000  1.6311700000  7.8715200000 
    134      1 0.4725000000 20.6077300000  28.7229200000  25.5186600000 
    135      1 0.4725000000 29.4623500000  3.0663900000  30.4436500000 
    136      1 0.4725000000 26.8557200000  37.8894300000  9.5844700000 
    137      1 0.4725000000 0.8583500000  34.7597700000  41.1736900000 
    138      1 0.4725000000 15.6556800000  34.9421300000  42.0185700000 
    139      1 0.4725000000 39.7520100000  24.2884800000  25.6678800000 
    140      1 0.4725000000 2.3737300000  14.0314600000  7.8910800000 
    141      1 0.4725000000 10.0675000000  38.1371000000  8.3873200000 
    142      1 0.4725000000 39.4794700000  8.9789600000  37.3491400000 
    143      1 0.4725000000 19.3109300000  38.7982100000  36.6119600000 
    144      1 0.4725000000 3.6706200000  1.8990300000  18.2020700000 
    145      1 0.4725000000 37.0561000000  39.7971900000  37.8931300000 
    146      1 0.4725000000 32.2445200000  16.0998200000  12.5130500000 
    147      1 0.4725000000 22.6079700000  4.3581000000  31.7663500000 
    148      1 0.4725000000 23.0676600000  6.2176800000  9.6609700000 
    149      1 0.4725000000 35.2074300000  12.8447500000  10.4406600000 
    150      1 0.4725000000 32.1302700000  0.1885700000  40.3289500000 
    151      1 0.4725000000 23.7798500000  33.5475400000  30.1785100000 
    152      1 0.4725000000 12.8254300000  12.2443300000  22.4120500000 
    153      1 0.4725000000 16.9991200000  21.9233100000  41.3224000000 
    154      1 0.4725000000 17.2783000000  13.3029000000  28.6727700000 
    155      1 0.4725000000 33.3066300000  20.1818700000  15.6538200000 
    156      1 0.4725000000 8.5928000000  7.4488300000  23.2982200000 
    157      1 0.4725000000 25.5212100000  40.9572800000  37.8112800000 
    158      1 0.4725000000 5.4555900000  15.0663600000  13.3544200000 
    159      1 0.4725000000 15.6015800000  4.5884200000  2.2352000000 
    160      1 0.4725000000 42.2651200000  27.3216400000  4.9898200000 
    161      1 0.4725000000 0.6763400000  29.4895100000  15.8937500000 
    162      1 0.4725000000 13.5879500000  34.9678900000  10.3966700000 
    163      1 0.4725000000 8.0961000000  14.9206200000  3.6792300000 
    164      1 0.4725000000 24.9155800000  21.1641400000  21.1700200000 
    165      1 0.4725000000 40.6982800000  1.7217600000  33.4896600000 
    166      1 0.4725000000 14.9398400000  20.7639400000  12.7327700000 
    167      1 0.4725000000 6.9169800000  40.7173600000  35.2211400000 
    168      1 0.4725000000 29.9732000000  29.6352800000  14.8882100000 
    169      1 0.4725000000 3.9945700000  18.3558200000  27.4522500000 
    170      1 0.4725000000 17.0372100000  21.9180100000  22.0752900000 
    171      1 0.4725000000 9.6607400000  11.6364000000  33.8736600000 
    172      1 0.4725000000 42.5668800000  1.7834200000  22.3723000000 
    173      1 0.4725000000 15.6102900000  28.9616400000  25.6216300000 
    174      1 0.4725000000 6.5856400000  2.7568300000  9.8484300000 
    175      1 0.4725000000 20.7978100000  13.4674900000  4.3314400000 
    176      1 0.4725000000 4.0645300000  35.1403500000  29.0774700000 
    177      1 0.4725000000 29.1886600000  8.2081800000  5.9334300000 
    178      1 0.4725000000 24.1728700000  7.6139900000  17.1184000000 
    179      1 0.4725000000 36.1345400000  19.1502500000  15.1055400000 
    180      1 0.4725000000 32.6576800000  34.1894700000  27.3862100000 
    181      1 0.4725000000 39.0630100000  5.7223500000  36.2799800000 
    182      1 0.4725000000 11.2674800000  20.3168700000  7.1664200000 
    183      1 0.4725000000 12.5196600000  0.2146600000  40.0183100000 
    184      1 0.4725000000 25.3378400000  27.3496000000  31.3504800000 
    185      1 0.4725000000 22.5250600000  8.1701200000  36.8968000000 
    186      1 0.4725000000 26.6761400000  10.2065000000  0.7615200000 
    187      1 0.4725000000 37.4736400000  38.0450900000  23.4612700000 
    188      1 0.4725000000 33.8302600000  14.6664100000  17.4953700000 
    189      1 0.4725000000 9.2868400000  11.9148400000  41.4910000000 
    190      1 0.4725000000 19.3263000000  39.6590200000  33.5552700000 
    191      1 0.4725000000 29.0527800000  18.3708500000  39.6274100000 
    192      1 0.4725000000 11.6044400000  11.8717100000  29.8043300000 
    193      1 0.4725000000 5.0843500000  4.6360700000  2.3978800000 
    194      1 0.4725000000 27.5815400000  42.4583000000  36.1745900000 
    195      1 0.4725000000 16.8353900000  24.9974300000  22.9094200000 
    196      1 0.4725000000 25.6829600000  40.8317000000  10.1575200000 
    197      1 0.4725000000 15.3522200000  2.2637900000  33.8138600000 
    198      1 0.4725000000 4.4417700000  7.0275200000  30.3224600000 
    199      1 0.4725000000 29.5579600000  41.9019200000  26.9026600000 
    200      1 0.4725000000 4.2658700000  41.3619500000  25.0418400000 
    201      1 0.4725000000 39.5575000000  16.4544300000  36.6193200000 
    202      1 0.4725000000 31.4989900000  39.4748700000  27.2404800000 
    203      1 0.4725000000 30.5868000000  6.9487400000  13.1441600000 
    204      1 0.4725000000 23.1417800000  3.3626200000  1.5995300000 
    205      1 0.4725000000 13.6141200000  15.6308200000  2.5096600000 
    206      1 0.4725000000 10.0073100000  8.8861100000  5.8601500000 
    207      1 0.4725000000 38.3897600000  14.5311300000  40.3772500000 
    208      1 0.4725000000 19.3606200000  11.1955100000  10.4646700000 
    209      1 0.4725000000 6.5184200000  10.9400500000  2.9899100000 
    210      1 0.4725000000 21.2573800000  33.4175700000  15.8244500000 
    211      1 0.4725000000 30.9125800000  20.3609200000  13.5528600000 
    212      1 0.4725000000 19.0136500000  24.6335400000  13.8643200000 
    213      1 0.4725000000 14.4254100000  20.3643900000  40.0929200000 
    214      1 0.4725000000 15.3914400000  42.3008600000  17.1963200000 
    215      1 0.4725000000 12.7388200000  30.0662900000  6.9174700000 
    216      1 0.4725000000 26.8358600000  26.6209800000  10.9552300000 
    217      1 0.4725000000 5.5910600000  20.3063400000  9.9427900000 
    218      1 0.4725000000 41.2169400000  32.3999100000  28.6849500000 
    219      1 0.4725000000 3.8174900000  20.9235600000  7.3778800000 
    220      1 0.4725000000 39.9931300000  39.7125500000  24.4559100000 
    221      1 0.4725000000 11.9993400000  2.8887800000  18.8017400000 
    222      1 0.4725000000 15.4452900000  9.0008000000  14.6066200000 
    223      1 0.4725000000 33.0168400000  4.7275400000  24.3012500000 
    224      1 0.4725000000 41.0554000000  26.2451100000  16.9833400000 
    225      1 0.4725000000 41.2227900000  41.2037800000  36.4490600000 
    226      1 0.4725000000 4.8431600000  12.8078400000  37.6269800000 
    227      1 0.4725000000 32.9898900000  39.0699200000  19.2988900000 
    228      1 0.4725000000 27.1066700000  0.2916900000  2.5426100000 
    229      1 0.4725000000 5.3371600000  40.1604500000  15.4148200000 
    230      1 0.4725000000 21.3500800000  3.2497500000  36.6207200000 
    231      1 0.4725000000 35.2858800000  3.5739600000  38.0735800000 
    232      1 0.4725000000 2.3344000000  31.6313700000  1.2352400000 
    233      1 0.4725000000 31.8146400000  40.0284900000  30.3201500000 
    234      1 0.4725000000 2.5399800000  1.9636700000  13.0153000000 
    235      1 0.4725000000 18.7402200000  14.2055000000  15.8147300000 
    236      1 0.4725000000 34.6526700000  3.5356800000  35.0218400000 
    237      1 0.4725000000 0.4270900000  42.5666800000  27.3540900000 
    238      1 0.4725000000 39.8439800000  33.5596500000  15.6232800000 
    239      1 0.4725000000 9.0459000000  10.0888700000  1.3615700000 
    240      1 0.4725000000 29.1967100000  26.6481400000  20.5733700000 
    241      1 0.4725000000 23.6520000000  40.4202100000  14.9122200000 
    242      1 0.4725000000 32.1931800000  21.7374300000  36.7553400000 
    243      1 0.4725000000 13.7517100000  12.7199600000  32.0118200000 
    244      1 0.4725000000 38.0870800000  17.9487700000  29.5655100000 
    245      1 0.4725000000 31.2152700000  24.6008800000  10.2710700000 
    246      1 0.4725000000 35.9953400000  26.7506700000  15.1378000000 
    247      1 0.4725000000 36.5847700000  5.9829500000  34.2120000000 
    248      1 0.4725000000 0.2680200000  26.2184100000  11.0280400000 
    249      1 0.4725000000 0.6321100000  16.4058900000  6.6254100000 
    250      1 0.4725000000 12.3231800000  41.8420600000  27.9965800000 
    251      1 0.4725000000 28.3526800000  13.5003600000  4.9372200000 
    252      1 0.4725000000 36.3179500000  6.2814000000  1.3709100000 
    253      1 0.4725000000 38.6830300000  33.7602200000  11.9036500000 
    254      1 0.4725000000 35.8091400000  1.7376500000  15.0230500000 
    255      1 0.4725000000 2.7427000000  7.6527700000  18.1529500000 
    256      1 0.4725000000 31.6633500000  26.5714800000  40.0870200000 
    257      1 0.4725000000 24.4083700000  36.3794800000  10.8900500000 
    258      1 0.4725000000 29.2554000000  40.1603800000  37.5705300000 
    259      1 0.4725000000 5.3227300000  12.5678000000  30.3747600000 
    260      1 0.4725000000 11.6053300000  38.5934700000  22.1403300000 
    261      2 1.4175000000 20.1455400000  16.1192100000  2.6723800000 
    262      2 1.4175000000 9.8647000000  29.2007200000  0.9926200000 
    263      2 1.4175000000 12.1957200000  36.2483300000  12.7827700000 
    264      2 1.4175000000 37.2997400000  11.8858600000  5.7351100000 
    265      2 1.4175000000 14.0436700000  41.0143200000  13.5015500000 
    266      2 1.4175000000 21.3666800000  30.1849500000  32.2256800000 
    267      2 1.4175000000 0.1880300000  30.0854000000  39.3219000000 
    268      2 1.4175000000 25.8813500000  22.9967200000  31.8122300000 
    269      2 1.4175000000 29.3805000000  22.9350900000  39.6201100000 
    270      2 1.4175000000 41.6082900000  3.7414100000  31.3030900000 
    271      2 1.4175000000 13.9110600000  20.3369800000  15.7457300000 
    272      2 1.4175000000 38.2361500000  41.9530400000  35.7320600000 
    273      2 1.4175000000 10.3774500000  22.2322000000  42.6020700000 
    274      2 1.4175000000 30.1021500000  13.6842900000  15.0242400000 
    275      2 1.4175000000 18.0960800000  41.2885100000  18.5380300000 
    276      2 1.4175000000 21.1762200000  29.2231300000  40.5241000000 
    277      2 1.4175000000 41.8281800000  41.4498900000  1.0207300000 
    278      2 1.4175000000 32.6279600000  14.8623800000  25.1244900000 
    279      2 1.4175000000 31.4967100000  25.2863000000  0.2474200000 
    280      2 1.4175000000 23.9968800000  10.5122100000  18.1004700000 
    281      2 1.4175000000 35.9438300000  23.4845600000  22.1668200000 
    282      2 1.4175000000 0.9919800000  30.0495900000  5.5905700000 
    283      2 1.4175000000 38.5987900000  28.9760100000  27.2086900000 
    284      2 1.4175000000 0.4505300000  21.2669800000  12.3399800000 
    285      2 1.4175000000 7.4477600000  21.2568300000  34.8250200000 
    286      2 1.4175000000 7.1882700000  16.5054200000  32.6259600000 
    287      2 1.4175000000 32.4755600000  15.4700600000  8.6375400000 
    288      2 1.4175000000 32.3113500000  12.4413800000  7.8362300000 
    289      2 1.4175000000 27.8033200000  7.6680400000  23.9771500000 
    290      2 1.4175000000 14.1046100000  0.7167700000  22.5801400000 
    291      2 1.4175000000 20.5237900000  29.3253200000  3.8905300000 
    292      2 1.4175000000 36.2624100000  1.4324100000  40.0590600000 
    293      2 1.4175000000 6.1970100000  13.9741400000  6.1090900000 
    294      2 1.4175000000 12.1527300000  31.1708000000  1.0072800000 
    295      2 1.4175000000 17.1146900000  8.1258900000  21.9239300000 
    296      2 1.4175000000 25.6279300000  34.8627100000  13.4130500000 
    297      2 1.4175000000 30.5020200000  18.5317700000  30.6187600000 
    298      2 1.4175000000 33.2695100000  32.9628200000  11.4857200000 
    299      2 1.4175000000 29.1420400000  31.2903700000  17.4087900000 
    300      2 1.4175000000 25.2738800000  2.1289200000  21.6635700000 
    301      2 1.4175000000 42.1315400000  9.5652200000  9.9349700000 
    302      2 1.4175000000 8.7008000000  34.0636700000  39.9476000000 
    303      2 1.4175000000 9.3646400000  7.3242700000  30.3640800000 
    304      2 1.4175000000 41.5568500000  39.7077300000  27.3324200000 
    305      2 1.4175000000 31.1711200000  1.4102900000  32.5231600000 
    306      2 1.4175000000 26.8717900000  32.9748700000  42.2071300000 
    307      2 1.4175000000 5.8351900000  17.3844300000  8.8994100000 
    308      2 1.4175000000 5.6135000000  19.5298000000  21.7313400000 
    309      2 1.4175000000 7.2347300000  26.2402400000  39.7839000000 
    310      2 1.4175000000 39.1612300000  3.4405200000  2.0544300000 
    311      2 1.4175000000 17.3125900000  16.1828900000  0.6040200000 
    312      2 1.4175000000 21.3040600000  11.6690700000  0.1853900000 
    313      2 1.4175000000 30.4442300000  21.7900600000  27.6266000000 
    314      2 1.4175000000 1.3670700000  18.9619500000  8.3124200000 
    315      2 1.4175000000 13.3416000000  32.1200300000  36.5676800000 
    316      2 1.4175000000 10.4393200000  0.2344900000  20.0281300000 
    317      2 1.4175000000 4.1031300000  6.2618200000  38.0946900000 
    318      2 1.4175000000 18.0056300000  12.6365900000  18.4389800000 
    319      2 1.4175000000 37.7611600000  9.6982000000  31.5233600000 
    320      2 1.4175000000 33.7313900000  29.6983200000  23.1144500000 
    321      2 1.4175000000 1.1574300000  36.1381600000  28.0929500000 
    322      2 1.4175000000 39.2564300000  33.1602600000  39.7482600000 
    323      2 1.4175000000 12.4300400000  18.7975600000  38.0333200000 
    324      2 1.4175000000 4.2999200000  8.4978400000  40.4284800000 
    325      2 1.4175000000 7.7657400000  14.9001800000  21.1201100000 
    326      2 1.4175000000 10.1691600000  36.9669300000  30.0243900000 
    327      2 1.4175000000 27.1023500000  33.4767300000  25.7315000000 
    328      2 1.4175000000 11.3502700000  0.6850900000  15.9485000000 
    329      2 1.4175000000 27.5723100000  4.0389800000  4.1833800000 
    330      2 1.4175000000 34.0466900000  28.9800200000  7.8697800000 
    331      2 1.4175000000 17.7551200000  4.9008500000  22.3376000000 
    332      2 1.4175000000 11.9950200000  6.3847900000  15.7038700000 
    333      2 1.4175000000 8.7256600000  18.1057700000  25.3443900000 
    334      2 1.4175000000 39.6624800000  10.3239800000  20.4397900000 
    335      2 1.4175000000 14.5937600000  16.5398900000  13.6550400000 
    336      2 1.4175000000 5.9550200000  38.8978500000  40.9142900000 
    337      2 1.4175000000 26.4091200000  38.1451700000  36.5964300000 
    338      2 1.4175000000 0.2556900000  24.3060300000  25.0806900000 
    339      2 1.4175000000 1.6086100000  31.7830300000  29.5404500000 
    340      2 1.4175000000 41.0847600000  26.7372500000  35.7229800000 
    341      2 1.4175000000 39.3008200000  23.2855700000  4.9723800000 
    342      2 1.4175000000 14.8803700000  31.4988900000  2.2938900000 
    343      2 1.4175000000 20.3359400000  30.2505800000  12.6398300000 
    344      2 1.4175000000 38.6799300000  11.0282500000  28.7211800000 
    345      2 1.4175000000 13.3341000000  27.0208900000  36.0031200000 
    346      2 1.4175000000 22.3362000000  30.5415300000  27.4812900000 
    347      2 1.4175000000 3.6901200000  32.5745300000  27.3043800000 
    348      2 1.4175000000 0.6403400000  28.5113800000  34.2320100000 
    349      2 1.4175000000 9.3940800000  10.9195600000  36.9820700000 
    350      2 1.4175000000 8.5902300000  40.3596500000  24.5117600000 
    351      2 1.4175000000 17.8776500000  0.6895700000  3.3783300000 
    352      2 1.4175000000 23.5539500000  30.4984500000  34.4458900000 
    353      2 1.4175000000 35.7919600000  33.9887500000  19.7088400000 
    354      2 1.4175000000 14.9673700000  34.4868800000  3.3553700000 
    355      2 1.4175000000 38.9960600000  8.2262500000  25.5328600000 
    356      2 1.4175000000 16.0883100000  26.6492000000  20.2907400000 
    357      2 1.4175000000 32.4629100000  13.0935100000  32.5787800000 
    358      2 1.4175000000 18.3802400000  39.8048500000  8.3995000000 
    359      2 1.4175000000 21.4706600000  41.8341100000  32.8597900000 
    360      2 1.4175000000 6.1642100000  20.6971000000  39.5403600000 
    361      2 1.4175000000 34.5513500000  36.8236200000  38.4856100000 
    362      2 1.4175000000 42.5989800000  36.3408100000  17.8897900000 
    363      2 1.4175000000 30.1912200000  30.8204600000  26.8667600000 
    364      2 1.4175000000 16.6554300000  29.8274200000  40.5010800000 
    365      2 1.4175000000 41.9547200000  40.4102600000  39.5213600000 
    366      2 1.4175000000 1.1811200000  33.1378500000  11.4149500000 
    367      2 1.4175000000 37.3044900000  17.8027100000  9.6543300000 
    368      2 1.4175000000 1.9068400000  3.3963900000  23.9778000000 
    369      2 1.4175000000 25.0619000000  39.0655000000  28.1423000000 
    370      2 1.4175000000 28.5784100000  25.6497200000  40.3799300000 
    371      2 1.4175000000 8.4364200000  0.1571100000  38.9406900000 
    372      2 1.4175000000 37.1349300000  22.0156500000  7.9767500000 
    373      2 1.4175000000 1.8807800000  11.9354900000  0.3242900000 
    374      2 1.4175000000 31.5313000000  2.9708900000  1.5468400000 
    375      2 1.4175000000 18.1300300000  35.7902200000  27.7945700000 
    376      2 1.4175000000 39.6265600000  13.1749600000  36.3247200000 
    377      2 1.4175000000 40.2547800000  2.6633900000  20.4273200000 
    378      2 1.4175000000 6.9274600000  26.3829100000  32.6278200000 
    379      2 1.4175000000 20.8757900000  13.6371300000  34.5917400000 
    380      2 1.4175000000 0.0676900000  19.1985900000  30.6899700000 
    381      2 1.4175000000 24.9117600000  17.1139100000  27.5385900000 
    382      2 1.4175000000 0.9037700000  11.0314100000  17.6626500000 
    383      2 1.4175000000 3.3159500000  33.5020000000  31.5759100000 
    384      2 1.4175000000 40.9828100000  5.5580800000  19.3561700000 
    385      2 1.4175000000 15.7111000000  17.7322400000  25.3767500000 
    386      2 1.4175000000 22.8296400000  28.6108200000  29.8839200000 
    387      2 1.4175000000 20.6374300000  15.4646300000  11.1818300000 
    388      2 1.4175000000 13.3144800000  41.1673800000  25.1703400000 
    389      2 1.4175000000 18.0931700000  34.6449100000  4.5669100000 
    390      2 1.4175000000 36.4489700000  6.4506000000  20.6218800000 
    391      2 1.4175000000 1.4486700000  7.7288700000  1.7132500000 
    392      2 1.4175000000 24.7035800000  24.9899400000  15.8182700000 
    393      2 1.4175000000 25.2612900000  9.0720900000  22.5988600000 
    394      2 1.4175000000 6.2611000000  41.6538200000  19.0578200000 
    395      2 1.4175000000 32.3740800000  3.2590800000  17.7859300000 
    396      2 1.4175000000 26.9546400000  16.8535300000  10.0810700000 
    397      2 1.4175000000 30.2018500000  11.4618700000  27.5082100000 
    398      2 1.4175000000 33.7087900000  31.1211500000  17.6159600000 
    399      2 1.4175000000 37.8605400000  8.5215000000  16.0141000000 
    400      2 1.4175000000 0.6969900000  0.1465100000  8.7038300000 
    401      2 1.4175000000 39.6671600000  34.6801500000  42.5332100000 
    402      2 1.4175000000 18.2354100000  22.3744200000  28.1854400000 
    403      2 1.4175000000 31.1386200000  23.0482800000  34.2315700000 
    404      2 1.4175000000 14.7994500000  38.1576000000  42.2791000000 
    405      2 1.4175000000 38.5891500000  33.9423500000  20.4985800000 
    406      2 1.4175000000 4.5571800000  1.5756100000  23.7649900000 
    407      2 1.4175000000 9.0965400000  21.4504800000  38.6818800000 
    408      2 1.4175000000 27.7699000000  15.6335800000  24.3206900000 
    409      2 1.4175000000 23.0506200000  6.6984100000  24.4849300000 
    410      2 1.4175000000 7.9260000000  31.1922900000  29.9361200000 
    411      2 1.4175000000 31.5727400000  39.5175800000  35.6085600000 
    412      2 1.4175000000 32.0838300000  6.7206900000  21.9841500000 