LAMMPS (29 Aug 2024)
OMP_NUM_THREADS environment is not set. Defaulting to 1 thread. (src/comm.cpp:98)
  using 1 OpenMP thread(s) per MPI task
# mpirun -np 16 lmp -in input.in
# mpirun -np 6 lmp -in input.in

# npt1 -> npt2 -> nve
# npt1: input: initial/random coordinates for all particles
# npt1: settup temp, pressure, atoms, ... with small timestep: 0.0005/0.0001 because the intial energy is large
# npt1: output restart1.dat
# npt2: input restart.dat, set up with the bigger timestep: 0.001 (1fs)
# npt2: output restart2.dat
# nve: input restart2.dat

# inputs and settup
units		    metal                           # amstrong, bar, eV, K, ...
variable    	TK1 equal 3000                  # temperature
variable    	Pbar1 equal 1.0e0               # pressure
variable        nsteps equal 1000000               # number of time steps
boundary	    p p p                           # periodic boudaries
atom_style	    charge                          # electrostatic interactions

# read the mass, coordinates of particles and box size
read_data	data-4.tsv
Reading data file ...
  orthogonal box = (-0.5 -0.5 -0.5) to (53.5 53.5 53.5)
  2 by 2 by 4 MPI processor grid
  reading atoms ...
  10017 atoms
  read_data CPU = 0.028 seconds
# read_restart	restart_CPS.dat             # for the latter simulation

# particle types
group 		Mg    type    1
2861 atoms in group Mg
group 		Si    type    2
1431 atoms in group Si
group 		O    type    3
5725 atoms in group O

# Assign charges to ions/do not need, Lammps automatically gives this
#set type 1 charge +2.0   # Ca²⁺
#set type 2 charge +5.0   # P⁵⁺
#set type 3 charge +4.0   # Si⁴⁺
#set type 4 charge -2.0   # O²⁻

# set velocity based on the velocity
# 3000: temperature
# 277387: random number seed
# mom yes: total momentum of the system is zero
velocity	all create 3000 277387 mom yes

# buck: Buckingham potential for short range interactions
# coul: Coulomb potential for long range interactions
# long: long-range corrections applied to the Coulombic interactions using Ewald summation or PPPM
# 10: cutoff distance.Within 10 A, Buckingham and Coulomb potentials are applied.
# Beyond 10 A. Buckingham is not applied. Coulomb potential is corrected using Ewald.

pair_style hybrid/overlay morse 5.5 lj/cut 5.5 coul/long 15.0

# Morse potential for Mg-O, Si-O, and O-O
pair_coeff 1 3 morse 0.038908 2.281000 2.586153
pair_coeff 2 3 morse 0.340554 2.006700 2.100000
pair_coeff 3 3 morse 0.042395 1.379316 3.618701

# Repulsive term using lj/cut for Mg-O, Si-O, and O-O
pair_coeff 1 3 lj/cut 0.0 5.0 5.5  # Repulsion for Mg-O
pair_coeff 2 3 lj/cut 0.0 1.0 5.5  # Repulsion for Si-O
pair_coeff 3 3 lj/cut 0.0 22.0 5.5 # Repulsion for O-O

# Coulombic interactions
pair_coeff * * coul/long


#  The accuracy of the Ewald summation
kspace_style ewald/disp 1e-4

# Set neighour atom list/skin distance 10 + 0.3 = 10.3
# Do not need to modify
neighbor	0.3 bin
neigh_modify	delay 10

# NVE ensemble simulaton with dt=1 fs
# fix		1 all nve

# print out with thermo each 100 timesteps
thermo		100
timestep	0.001          #0.001 = 1 fs

thermo_style	custom	step	temp	press	vol	density	pe	ke	etotal

# output trajectory to xyz file every 50000 timesteps
# do not need to change
dump 		1 all xyz 50000 trajectory.xyz
dump_modify	1 element  1 2 3



# 1st: run the npt
# starting temp/press -> target temp/press
# iso: pressure is controlled isotropically
# 10: damping parameter for temp/press
fix 1 all npt temp ${TK1} ${TK1} 10 iso ${Pbar1} ${Pbar1} 10
fix 1 all npt temp 3000 ${TK1} 10 iso ${Pbar1} ${Pbar1} 10
fix 1 all npt temp 3000 3000 10 iso ${Pbar1} ${Pbar1} 10
fix 1 all npt temp 3000 3000 10 iso 1 ${Pbar1} 10
fix 1 all npt temp 3000 3000 10 iso 1 1 10

# 2st: run the nve after getting the equilibrium state
# fix 1 all nve

# compute mean squared distance
# do not need to change
# compute 	1	all	msd
#compute 	1	Ca 	msd
#fix 2  Ca 	ave/time  1  1    1000  c_1[4]   file  CPS_Ca.msd
#compute 	2	P 	msd
#fix 3  P 	ave/time  1  1    1000  c_2[4]   file  CPS_P.msd
#compute 	3	Si 	msd
#fix 4  Si 	ave/time  1  1    1000  c_3[4]   file  CPS_Si.msd
#compute 	4	O 	msd
#fix 5  O 	ave/time  1  1    1000  c_4[4]   file  CPS_O.msd

# run with nsteps steps
run ${nsteps}
run 1000000

CITE-CITE-CITE-CITE-CITE-CITE-CITE-CITE-CITE-CITE-CITE-CITE-CITE

Your simulation uses code contributions which should be cited:

- Type Label Framework: https://doi.org/10.1021/acs.jpcb.3c08419

@Article{Gissinger24,
 author = {Jacob R. Gissinger, Ilia Nikiforov, Yaser Afshar, Brendon Waters, Moon-ki Choi, Daniel S. Karls, Alexander Stukowski, Wonpil Im, Hendrik Heinz, Axel Kohlmeyer, and Ellad B. Tadmor},
 title = {Type Label Framework for Bonded Force Fields in LAMMPS},
 journal = {J. Phys. Chem. B},
 year =    2024,
 volume =  128,
 number =  13,
 pages =   {3282–-3297}
}

CITE-CITE-CITE-CITE-CITE-CITE-CITE-CITE-CITE-CITE-CITE-CITE-CITE

EwaldDisp initialization ...
Generated 0 of 3 mixed pair_coeff terms from geometric mixing rule
WARNING: System is not charge neutral, net charge = -2.4 (src/kspace.cpp:327)
WARNING: System is not charge neutral, net charge = -2.4 (src/KSPACE/ewald_disp.cpp:223)
  G vector = 0.1873004,   accuracy = 0.0014399645
Generated 0 of 3 mixed pair_coeff terms from geometric mixing rule
Neighbor list info ...
  update: every = 1 steps, delay = 10 steps, check = yes
  max neighbors/atom: 2000, page size: 100000
  master list distance cutoff = 15.3
  ghost atom cutoff = 15.3
  binsize = 7.65, bins = 8 8 8
  6 neighbor lists, perpetual/occasional/extra = 6 0 0
  (1) pair morse, perpetual, trim from (2)
      attributes: half, newton on, cut 5.8
      pair build: trim
      stencil: none
      bin: none
  (2) pair lj/cut, perpetual, trim from (4)
      attributes: half, newton on, cut 5.8
      pair build: trim
      stencil: none
      bin: none
  (3) pair coul/long, perpetual
      attributes: half, newton on
      pair build: half/bin/atomonly/newton
      stencil: half/bin/3d
      bin: standard
  (4) pair morse, perpetual, skip from (3)
      attributes: half, newton on
      pair build: skip
      stencil: none
      bin: none
  (5) pair lj/cut, perpetual, copy from (4)
      attributes: half, newton on
      pair build: copy
      stencil: none
      bin: none
  (6) pair coul/long, perpetual, copy from (3)
      attributes: half, newton on
      pair build: copy
      stencil: none
      bin: none
  vectors: nbox = 10, nkvec = 2084
Per MPI rank memory allocation (min/avg/max) = 25.46 | 25.9 | 26.24 Mbytes
   Step          Temp          Press          Volume        Density         PotEng         KinEng         TotEng    
         0   3000           109048.23      157464         2.1230601     -9580.6673      3884.0088     -5696.6585    
       100   57004.788      736806.3       158007.14      2.1157623     -79956.986      73802.366     -6154.6199    
       200   57363.438      720015.21      159736.69      2.0928538     -81571.12       74266.699     -7304.4205    
       300   56217.807      690999.48      161856.61      2.0654426     -81507.006      72783.487     -8723.5195    
       400   55022.574      669587.55      163739.32      2.0416937     -81245.551      71236.055     -10009.496    
       500   55034.029      645647.11      165625.58      2.0184415     -82470.837      71250.885     -11219.952    
       600   53981.179      621574.25      167538.46      1.9953959     -82307.492      69887.792     -12419.7      
       700   53671.729      600108.83      169333.82      1.9742396     -83089.533      69487.157     -13602.376    
       800   52697.954      584319.08      171003.54      1.9549627     -82992.825      68226.44      -14766.385    
       900   52042.36       562498.45      172608.04      1.9367901     -83273.44       67377.663     -15895.777    
      1000   51007.505      556704.07      174178.82      1.9193237     -83057.05       66037.866     -17019.183    
      1100   50164.188      536957.71      175721.83      1.9024702     -83058.474      64946.049     -18112.425    
      1200   50042.177      521780.21      177239.7       1.8861775     -83980.146      64788.086     -19192.06     
      1300   49594.339      509952.82      178736.56      1.8703814     -84457.459      64208.284     -20249.175    
      1400   48736.584      496110.16      180213.28      1.855055      -84386.421      63097.775     -21288.647    
      1500   48257.821      478799.77      181676.42      1.8401152     -84800.057      62477.934     -22322.123    
      1600   47532.007      466489.54      183125.35      1.8255558     -84864.249      61538.245     -23326.003    
      1700   46631.608      452354.9       184556.66      1.8113978     -84684.421      60372.526     -24311.894    
      1800   46215.644      445208.15      185973.2       1.7976006     -85124.267      59833.99      -25290.277    
      1900   45843.557      432004.07      187378.67      1.7841174     -85596.062      59352.26      -26243.802    
      2000   45075.28       419781.56      188773.81      1.7709318     -85553.653      58357.595     -27196.058    
      2100   44190.264      407721.62      190157.58      1.7580448     -85324.053      57211.791     -28112.262    
      2200   43910.025      400968.99      191529.37      1.7454531     -85873.072      56848.976     -29024.096    
      2300   43656.547      387678.09      192891.78      1.7331249     -86442.943      56520.805     -29922.138    
      2400   43027.916      380381.13      194241.37      1.7210831     -86502.458      55706.935     -30795.523    
      2500   42285.93       377079.64      195581.91      1.7092867     -86411.185      54746.309     -31664.877    
      2600   41893.701      362345.41      196913.19      1.6977305     -86758.11       54238.501     -32519.609    
      2700   41269.663      352559.7       198235.03      1.68641       -86781.49       53430.579     -33350.911    
      2800   40743.161      347414.37      199544.93      1.6753397     -86918.604      52748.932     -34169.672    
      2900   40441.835      339987.75      200847.3       1.6644761     -87341.207      52358.815     -34982.391    
      3000   39987.385      329529.82      202144.04      1.6537987     -87547.708      51770.453     -35777.255    
      3100   39680.803      316739.68      203429.19      1.6433509     -87929.597      51373.529     -36556.068    
      3200   39173.204      312712.02      204702.84      1.633126      -88042.734      50716.356     -37326.378    
      3300   38591.133      301186.31      205970.2       1.6230772     -88046.934      49962.768     -38084.167    
      3400   38215.624      294233.51      207228.83      1.6132192     -88300.282      49476.607     -38823.675    
      3500   37495.885      291927.27      208478.52      1.6035491     -88100.797      48544.783     -39556.014    
      3600   37232.761      283913.66      209719.47      1.5940606     -88477.596      48204.124     -40273.472    
      3700   36832.744      274666.2       210953.63      1.5847347     -88667.866      47686.235     -40981.631    
      3800   36263.325      271775.79      212178.58      1.5755857     -88623.99       46949.025     -41674.965    
      3900   35758.605      262581.39      213398.84      1.5665762     -88646.404      46295.579     -42350.825    
      4000   35764.749      256544.78      214608.79      1.5577439     -89331.625      46303.534     -43028.09     
      4100   35157.453      248589.75      215809.85      1.5490746     -89204.167      45517.286     -43686.882    
      4200   34720.657      249521.18      217005.18      1.5405418     -89291.004      44951.78      -44339.224    
      4300   34525.343      238136.48      218197.31      1.5321249     -89674.19       44698.912     -44975.278    
      4400   34032.531      239101.05      219380.12      1.5238643     -89666.564      44060.883     -45605.681    
      4500   33711.483      230713.89      220553.9       1.5157544     -89868.17       43645.232     -46222.938    
      4600   33198.091      223260.66      221717.91      1.5077968     -89814.074      42980.559     -46833.515    
      4700   32723.027      219830.94      222873.39      1.4999796     -89799.045      42365.508     -47433.537    
      4800   32738.066      209383.41      224022.57      1.4922851     -90402.726      42384.979     -48017.746    
      4900   32138.057      207526.82      225164.31      1.4847182     -90206.623      41608.166     -48598.456    
      5000   31897.208      207229.91      226298.44      1.4772773     -90464.283      41296.346     -49167.937    
      5100   31527.311      201032.91      227425.23      1.469958      -90547.338      40817.451     -49729.887    
      5200   31441.234      197345.55      228546.31      1.4627475     -90993.219      40706.01      -50287.209    
      5300   31091.538      194791.03      229659.8       1.4556555     -91083.914      40253.269     -50830.645    
      5400   30484.413      187140.98      230766.35      1.4486754     -90830.394      39467.244     -51363.15     
      5500   30128.095      184587.19      231868.03      1.4417923     -90898.803      39005.929     -51892.874    
      5600   29809.481      179429.81      232962.5       1.4350187     -91003.11       38593.429     -52409.681    
      5700   29714.283      178093.66      234049.19      1.4283559     -91394.034      38470.179     -52923.855    
      5800   29328.35       171320.81      235130.29      1.4217885     -91398.208      37970.523     -53427.685    
      5900   29171.872      171504.99      236201.63      1.4153397     -91691.166      37767.937     -53923.229    
      6000   28939.044      166771.44      237270.71      1.4089625     -91883.81       37466.501     -54417.309    
      6100   28736.525      163926.45      238333.12      1.4026818     -92104.564      37204.306     -54900.257    
      6200   28204.247      158004.46      239388.76      1.3964964     -91891.651      36515.181     -55376.47     
      6300   28069.224      159648.66      240436.35      1.3904118     -92184.361      36340.371     -55843.991    
      6400   27613.97       154611.27      241476.75      1.3844212     -92055.125      35750.968     -56304.158    
      6500   27375.985      149400.12      242511.84      1.3785123     -92200.175      35442.856     -56757.32     
      6600   27231.759      141797.87      243539.47      1.3726955     -92464.566      35256.131     -57208.435    
      6700   26997.336      142428.63      244556.29      1.3669881     -92600.115      34952.63      -57647.485    
      6800   26595.741      140901.98      245566.13      1.3613666     -92515.159      34432.698     -58082.461    
      6900   26414.054      134521.52      246574.27      1.3558006     -92706.731      34197.473     -58509.257    
      7000   26158.2        132814.05      247577.5       1.3503066     -92801.524      33866.226     -58935.297    
      7100   25993.094      133112.06      248576.85      1.344878      -93007.26       33652.469     -59354.791    
      7200   25685.598      130918.38      249571.28      1.3395193     -93020.409      33254.363     -59766.045    
      7300   25465.129      127389.03      250563.45      1.3342151     -93144.941      32968.928     -60176.013    
      7400   25065.907      122392.98      251550.79      1.3289783     -93029.574      32452.069     -60577.505    
      7500   24913.437      120144.54      252527.42      1.3238386     -93228.463      32254.67      -60973.792    
      7600   24858.304      122988.21      253494.8       1.3187866     -93545.422      32183.291     -61362.131    
      7700   24669.975      120491.47      254456.29      1.3138034     -93686.768      31939.466     -61747.302    
      7800   24322.334      117849.71      255412.35      1.3088856     -93615.163      31489.386     -62125.777    
      7900   24056.939      109851.91      256366.43      1.3040145     -93649.287      31145.788     -62503.499    
      8000   23968.546      108671.29      257313.7       1.2992139     -93902.925      31031.349     -62871.576    
      8100   23698.477      107668.87      258255.48      1.2944761     -93919.331      30681.698     -63237.633    
      8200   23422.979      106937.11      259188.26      1.2898175     -93920.38       30325.019     -63595.36     
      8300   23276.608      106686.37      260110.42      1.2852447     -94087.672      30135.517     -63952.154    
      8400   22986.978      101974.58      261027.91      1.2807272     -94060.651      29760.542     -64300.109    
      8500   23183.136      100723.32      261943.98      1.2762482     -94662.812      30014.501     -64648.311    
      8600   22768.886      97001.903      262859.48      1.2718033     -94470.684      29478.184     -64992.5      
      8700   22489.451      98787.379      263768.64      1.2674196     -94445.547      29116.408     -65329.139    
      8800   22386.036      96582.491      264672.68      1.2630905     -94645.21       28982.52      -65662.69     
      8900   22071.338      94133.377      265568.7       1.2588289     -94566.811      28575.091     -65991.721    
      9000   21849.689      94484.368      266458.64      1.2546245     -94608.125      28288.128     -66319.996    
      9100   21772.761      87238.418      267345.38      1.2504631     -94828.822      28188.531     -66640.291    
      9200   21606.039      90177.326      268224.11      1.2463665     -94930.275      27972.683     -66957.592    
      9300   21337.826      84109.57       269100.35      1.2423081     -94894.033      27625.435     -67268.598    
      9400   21246.091      84419.461      269970.17      1.2383055     -95083.787      27506.668     -67577.119    
      9500   21280.005      85186.736      270830.15      1.2343734     -95435.596      27550.576     -67885.02     
      9600   20836.242      84207.659      271686.66      1.230482      -95163.899      26976.049     -68187.85     
      9700   20873.947      83399.513      272536.8       1.2266437     -95508.524      27024.865     -68483.659    
      9800   20553.928      82496.817      273383.16      1.2228461     -95387.962      26610.546     -68777.416    
      9900   20256.324      78639.39       274225.2       1.2190912     -95296.58       26225.247     -69071.333    
     10000   20195.322      78316.912      275059.33      1.2153943     -95502.563      26146.269     -69356.294    
     10100   20046.063      73936.277      275890.17      1.2117342     -95593.558      25953.029     -69640.529    
     10200   19936.671      75099.454      276715.53      1.2081199     -95734.052      25811.402     -69922.65     
     10300   19739.722      69500.58       277535.25      1.2045516     -95756.326      25556.419     -70199.907    
     10400   19707.81       72646.755      278347.68      1.2010358     -95985.775      25515.103     -70470.672    
     10500   19390.657      71418.733      279158.17      1.1975488     -95848.198      25104.495     -70743.703    
     10600   19306.085      69946.575      279961.59      1.1941122     -96006.865      24995.001     -71011.864    
     10700   19197.232      69640.456      280761.44      1.1907103     -96130.99       24854.073     -71276.917    
     10800   19058.148      63515.458      281559.09      1.1873371     -96211.039      24674.005     -71537.034    
     10900   19171.108      67988.212      282348.93      1.1840156     -96618.551      24820.251     -71798.299    
     11000   18706.639      65688.596      283137.28      1.1807189     -96272.603      24218.917     -72053.685    
     11100   18627.218      65485.805      283917.68      1.1774735     -96422.826      24116.093     -72306.733    
     11200   18436.428      63694.898      284692.93      1.1742671     -96422.85       23869.083     -72553.767    
     11300   18307.756      64802.304      285463.87      1.1710958     -96505.709      23702.495     -72803.214    
     11400   18241.196      59498.586      286231.69      1.1679543     -96666.22       23616.322     -73049.899    
     11500   18104.425      57804.583      286997.17      1.1648392     -96729.655      23439.249     -73290.405    
     11600   18012.182      57745.531      287752.3       1.1617823     -96849.032      23319.824     -73529.208    
     11700   17891.35       61599.42       288501.34      1.158766      -96930.837      23163.387     -73767.45     
     11800   17670.406      57185.859      289251.08      1.1557625     -96881.323      22877.337     -74003.986    
     11900   17730.048      53702.619      289995.82      1.1527943     -97190.154      22954.554     -74235.6      
     12000   17455.719      54816.783      290730.58      1.1498809     -97064.475      22599.388     -74465.087    
     12100   17332.105      55242.914      291461.67      1.1469966     -97134.417      22439.35      -74695.067    
     12200   17440.361      54857.792      292192.48      1.1441278     -97501.111      22579.505     -74921.606    
     12300   17061.649      51228.685      292920.59      1.1412839     -97229.84       22089.198     -75140.642    
     12400   16916.676      51041.839      293641.63      1.1384814     -97264.776      21901.506     -75363.27     
     12500   16855.461      52771.516      294356.17      1.1357178     -97403.458      21822.253     -75581.204    
     12600   16678.363      50636.92       295067.63      1.1329794     -97390.299      21592.97      -75797.33     
     12700   16703.537      48944.113      295779.49      1.1302526     -97636.887      21625.562     -76011.325    
     12800   16770.483      49037.807      296484.34      1.1275656     -97938.79       21712.234     -76226.555    
     12900   16482.992      46986.223      297183.46      1.124913      -97774.21       21340.029     -76434.182    
     13000   16358.012      43699.308      297875.89      1.1222981     -97819.763      21178.221     -76641.543    
     13100   16276.042      46302.265      298562.61      1.1197167     -97919.539      21072.097     -76847.442    
     13200   16094.458      44325.824      299243.9       1.1171675     -97888.24       20837.005     -77051.234    
     13300   16043.342      44637.83       299922.22      1.1146408     -98021.216      20770.828     -77250.388    
     13400   15846.497      44808.371      300598.59      1.1121328     -97967.289      20515.978     -77451.31     
     13500   15722.805      42067.613      301276.84      1.1096291     -98005.429      20355.838     -77649.59     
     13600   15530.931      41499.652      301949.16      1.1071584     -97952.899      20107.424     -77845.475    
     13700   15546.479      40691.665      302615.94      1.1047189     -98165.038      20127.554     -78037.484    
     13800   15672.635      44308.668      303276.56      1.1023125     -98521.784      20290.885     -78230.9      
     13900   15443.032      39052.095      303933.35      1.0999304     -98413.974      19993.624     -78420.35     
     14000   15537.199      40344.164      304583.45      1.0975827     -98723.453      20115.54      -78607.913    
     14100   15270.249      39005.863      305230.02      1.0952577     -98562.844      19769.927     -78792.918    
     14200   15201.4        39355.757      305874.43      1.0929503     -98659.979      19680.791     -78979.188    
     14300   15089.52       39769.216      306518.09      1.0906552     -98698.072      19535.943     -79162.129    
     14400   15046.925      37278.963      307156.25      1.0883892     -98826.683      19480.796     -79345.887    
     14500   14846.718      34847.228      307790.7       1.0861457     -98744.473      19221.594     -79522.879    
     14600   14792.375      36262.683      308420.67      1.0839272     -98854.953      19151.238     -79703.715    
     14700   14716.385      35059.189      309046.67      1.0817316     -98934.922      19052.856     -79882.066    
     14800   14735.653      35090.998      309670.61      1.0795521     -99135.901      19077.802     -80058.1      
     14900   14570.688      34412.593      310291.28      1.0773927     -99096.213      18864.228     -80231.986    
     15000   14309.071      31729.697      310905.92      1.0752627     -98927.074      18525.52      -80401.555    
     15100   14430.842      35581.61       311511.54      1.0731723     -99256.657      18683.173     -80573.485    
     15200   14279.711      35747.084      312114.31      1.0710997     -99228.087      18487.508     -80740.579    
     15300   14230.692      31532.156      312715.12      1.0690418     -99333.464      18424.044     -80909.42     
     15400   14162.667      31614.773      313314.9       1.0669953     -99411.539      18335.974     -81075.564    
     15500   14001.663      29841.769      313911.08      1.0649689     -99367.148      18127.528     -81239.62     
     15600   13788.52       32858.277      314503.05      1.0629644     -99255.311      17851.578     -81403.733    
     15700   13848.769      29134.564      315092.27      1.0609767     -99493.513      17929.58      -81563.933    
     15800   13805.738      32681.845      315677.09      1.0590111     -99598.389      17873.87      -81724.52     
     15900   13644.727      31065.691      316259.64      1.0570604     -99547.395      17665.414     -81881.981    
     16000   13613.051      29816.181      316838.21      1.0551301     -99664.319      17624.404     -82039.916    
     16100   13459.033      27665.37       317411.32      1.053225      -99623.154      17425.001     -82198.153    
     16200   13380.843      28101.297      317975.73      1.0513555     -99676.245      17323.771     -82352.474    
     16300   13279.682      30006.946      318531.22      1.0495221     -99698.212      17192.801     -82505.411    
     16400   13280.305      26638.427      319087.69      1.0476917     -99852.939      17193.607     -82659.332    
     16500   13127.699      27710.471      319643.21      1.0458709     -99804.949      16996.032     -82808.917    
     16600   12972.018      26630.567      320196.36      1.0440641     -99751.918      16794.478     -82957.44     
     16700   13144.267      27299.771      320746.21      1.0422743     -100124.34      17017.484     -83106.86     
     16800   13088.388      26183.073      321296.13      1.0404904     -100198.81      16945.138     -83253.675    
     16900   12881.818      24349.421      321841.28      1.038728      -100077.05      16677.698     -83399.357    
     17000   12898.991      25347          322381.16      1.0369885     -100245.28      16699.931     -83545.347    
     17100   12683.71       23886.71       322916.48      1.0352694     -100109.17      16421.215     -83687.956    
     17200   12722.467      23129.14       323443.69      1.0335819     -100300.78      16471.392     -83829.389    
     17300   12584.137      23562.221      323966.62      1.0319135     -100263.46      16292.3       -83971.164    
     17400   12516.217      21172.583      324485.14      1.0302646     -100314.25      16204.365     -84109.882    
     17500   12637.235      24869.698      324997.16      1.0286414     -100608.39      16361.044     -84247.349    
     17600   12432.641      23826.132      325507.36      1.0270291     -100483.19      16096.162     -84387.027    
     17700   12545.949      22190.752      326016.61      1.0254249     -100766.39      16242.859     -84523.529    
     17800   12317.295      22862.492      326524.72      1.0238292     -100605.72      15946.827     -84658.897    
     17900   12282.962      20479.008      327031.49      1.0222427     -100696.34      15902.378     -84793.962    
     18000   12179.302      22764.471      327535.15      1.0206707     -100696.41      15768.172     -84928.237    
     18100   12242.093      22959.862      328041         1.0190968     -100911.61      15849.466     -85062.144    
     18200   12148.88       20651.238      328545         1.0175335     -100923.32      15728.786     -85194.532    
     18300   12092.992      20690.197      329046.6       1.0159824     -100985.33      15656.43      -85328.897    
     18400   11992.308      21262.671      329546.56      1.014441      -100983.03      15526.077     -85456.95     
     18500   11943.573      20501.321      330042.41      1.0129169     -101049.95      15462.981     -85586.964    
     18600   11895.711      21132.204      330532.93      1.0114137     -101114.97      15401.016     -85713.953    
     18700   11864.269      20524.04       331017.59      1.0099329     -101200.98      15360.309     -85840.674    
     18800   11709.079      19152.931      331497.55      1.0084706     -101126.97      15159.389     -85967.58     
     18900   11746.905      20140.02       331971.83      1.0070298     -101300.62      15208.36      -86092.263    
     19000   11568.09       20242.685      332445.56      1.0055948     -101193.32      14976.855     -86216.465    
     19100   11611.181      17646.246      332918.76      1.0041655     -101372.31      15032.643     -86339.668    
     19200   11518.45       16430.511      333385.86      1.0027586     -101374.29      14912.587     -86461.705    
     19300   11505.386      18944.54       333846.71      1.0013744     -101479.41      14895.674     -86583.732    
     19400   11438.713      18700.187      334305.67      0.99999961    -101514.98      14809.354     -86705.627    
     19500   11367.396      17228.179      334764.57      0.99862879    -101540.59      14717.022     -86823.566    
     19600   11357.886      16212.713      335218.98      0.9972751     -101645.89      14704.709     -86941.183    
     19700   11201.571      17065.131      335667.24      0.99594332    -101559.02      14502.334     -87056.685    
     19800   11108.316      15668.924      336109.28      0.99463346    -101555.58      14381.599     -87173.982    
     19900   11158.875      15969.656      336547.88      0.99333725    -101738.58      14447.057     -87291.524    
     20000   11111.066      14461.22       336980.79      0.99206114    -101792.13      14385.159     -87406.969    
     20100   11068.162      15549.962      337409.41      0.99080088    -101852.18      14329.614     -87522.571    
     20200   10983.576      16201.67       337836.21      0.98954916    -101854.37      14220.102     -87634.271    
     20300   10890.113      14711.124      338261.73      0.98830437    -101845.7       14099.098     -87746.602    
     20400   10867.722      14968.098      338682.97      0.98707514    -101928.77      14070.11      -87858.659    
     20500   10788.251      13950.015      339103.61      0.98585073    -101935.83      13967.221     -87968.604    
     20600   10695.514      13769.803      339522.76      0.98463366    -101925.58      13847.157     -88078.425    
     20700   10645.309      12888.532      339935.08      0.98343936    -101970.15      13782.159     -88187.989    
     20800   10573.544      12891.31       340345.32      0.98225398    -101986.91      13689.246     -88297.667    
     20900   10641.687      16049.337      340756.55      0.98106856    -102182.36      13777.468     -88404.891    
     21000   10476.494      15975.718      341168.13      0.97988503    -102078.15      13563.599     -88514.547    
     21100   10563.458      13552.919      341577.96      0.97870934    -102300.14      13676.188     -88623.948    
     21200   10611.836      13472.688      341986.02      0.97754155    -102470.15      13738.821     -88731.331    
     21300   10465.731      13164.448      342392.46      0.97638115    -102384.28      13549.664     -88834.613    
     21400   10429.567      12713.278      342790.82      0.97524648    -102441.46      13502.844     -88938.62     
     21500   10312.991      15724.17       343182.11      0.97413451    -102394.42      13351.916     -89042.501    
     21600   10260.658      12289.927      343574.52      0.97302192    -102430.03      13284.161     -89145.87     
     21700   10331.343      13176.189      343961.21      0.97192803    -102624.85      13375.676     -89249.172    
     21800   10253.957      12934.322      344345.87      0.97084233    -102627.34      13275.486     -89351.858    
     21900   10265.92       11875.525      344727.5       0.96976755    -102744.39      13290.974     -89453.413    
     22000   10117.2        11736.819      345106.85      0.96870155    -102652.18      13098.431     -89553.744    
     22100   10101.088      12619.609      345482.96      0.96764699    -102730.91      13077.572     -89653.338    
     22200   10093.443      12974.162      345853.95      0.966609      -102820.73      13067.675     -89753.06     
     22300   9909.9561      12471.917      346221.19      0.96558371    -102681.21      12830.119     -89851.091    
     22400   10012.349      11149.715      346584.24      0.96457225    -102909.42      12962.684     -89946.74     
     22500   9900.5571      10953.015      346941.77      0.96357825    -102862.82      12817.95      -90044.872    
     22600   9843.3743      10164.118      347301.59      0.96257993    -102885.71      12743.918     -90141.788    
     22700   9742.6475      9275.8314      347658.03      0.96159303    -102850.45      12613.51      -90236.944    
     22800   9757.9236      8949.3806      348008.12      0.9606257     -102966.78      12633.287     -90333.489    
     22900   9779.9532      10847.499      348357.27      0.95966289    -103092.36      12661.808     -90430.551    
     23000   9701.4352      10649.308      348708.24      0.95869699    -103083.71      12560.153     -90523.557    
     23100   9715.066       10084.69       349057.23      0.95773848    -103192.64      12577.801     -90614.841    
     23200   9649.2669      9313.4236      349405.93      0.95678267    -103201.5       12492.613     -90708.885    
     23300   9592.6752      9701.0926      349753.52      0.95583181    -103219.72      12419.345     -90800.373    
     23400   9497.1471      8716.9934      350094.06      0.95490207    -103186.56      12295.668     -90890.889    
     23500   9464.3337      9654.2705      350426.68      0.95399569    -103235.93      12253.185     -90982.745    
     23600   9356.3173      7487.3697      350755.95      0.95310014    -103185.48      12113.34      -91072.141    
     23700   9534.1312      8468.0397      351079.41      0.95222202    -103506.04      12343.55      -91162.494    
     23800   9379.0594      8304.4028      351399.99      0.9513533     -103395.61      12142.783     -91252.828    
     23900   9398.9822      9054.9093      351719.44      0.95048923    -103510.1       12168.577     -91341.523    
     24000   9229.8548      10654.145      352034.91      0.94963746    -103378.62      11949.613     -91429.004    
     24100   9198.3077      7265.2225      352347.07      0.94879615    -103425.5       11908.769     -91516.731    
     24200   9240.5999      8513.8497      352653.14      0.94797267    -103567.52      11963.524     -91603.994    
     24300   9213.0514      9699.0939      352957.6       0.94715496    -103617.98      11927.858     -91690.119    
     24400   9120.5148      8918.3138      353263.85      0.94633385    -103586.36      11808.053     -91778.304    
     24500   9196.6816      8382.7554      353573.32      0.94550556    -103772.73      11906.664     -91866.07     
     24600   9146.4281      8146.6853      353883.07      0.94467796    -103792.61      11841.602     -91951.006    
     24700   9053.4418      8526.4808      354193.05      0.94385121    -103758.16      11721.216     -92036.942    
     24800   8907.9649      6614.8793      354500.56      0.94303249    -103653.02      11532.871     -92120.15     
     24900   9025.2431      8479.4742      354801.71      0.94223205    -103887.92      11684.708     -92203.21     
     25000   8979.4857      8747.2551      355099.86      0.94144093    -103912.44      11625.467     -92286.972    
     25100   8982.2968      7922.5695      355395.43      0.94065798    -103999.67      11629.107     -92370.559    
     25200   8869.7926      4774.7791      355688.31      0.9398834     -103935.86      11483.451     -92452.404    
     25300   8805.5719      6556.6577      355974.23      0.93912848    -103933.69      11400.306     -92533.386    
     25400   8743.4424      6351.0327      356254.18      0.9383905     -103933.28      11319.869     -92613.406    
     25500   8790.6043      6591.8126      356532.22      0.93765871    -104077.55      11380.928     -92696.624    
     25600   8646.8198      5176.5106      356808.07      0.93693381    -103970.82      11194.775     -92776.05     
     25700   8726.1304      6779.3929      357081.18      0.9362172     -104153.87      11297.456     -92856.419    
     25800   8677.3291      6995.2372      357354.27      0.93550175    -104169.43      11234.274     -92935.153    
     25900   8711.3291      7900.6276      357626.59      0.93478939    -104292.07      11278.293     -93013.779    
     26000   8692.3149      8096.7633      357898.42      0.9340794     -104346.21      11253.676     -93092.53     
     26100   8492.5365      6401.8545      358165.02      0.93338412    -104164.19      10995.029     -93169.158    
     26200   8535.2659      4803.9513      358426.9       0.93270217    -104297.48      11050.349     -93247.134    
     26300   8508.9134      6347.6328      358686.34      0.93202752    -104342.39      11016.232     -93326.156    
     26400   8579.8737      4279.6496      358944.02      0.93135843    -104511.21      11108.102     -93403.109    
     26500   8525.2619      6663.8657      359201.14      0.93069175    -104517.91      11037.397     -93480.513    
     26600   8475.5256      5547.8655      359457.29      0.93002854    -104528.31      10973.005     -93555.303    
     26700   8421.2343      6219.0266      359711.35      0.92937167    -104533.81      10902.716     -93631.09     
     26800   8473.443       7090.4849      359962.67      0.92872281    -104678.09      10970.309     -93707.784    
     26900   8357.2177      5957.3378      360214.88      0.92807254    -104602.88      10819.836     -93783.043    
     27000   8193.1252      3914.7686      360465.38      0.9274276     -104462.8       10607.39      -93855.414    
     27100   8278.072       5995.3264      360710.12      0.92679833    -104647.84      10717.368     -93930.471    
     27200   8349.0453      4652.4399      360954.06      0.926172      -104813.19      10809.255     -94003.938    
     27300   8285.0297      3935.296       361198.09      0.92554625    -104804.07      10726.376     -94077.698    
     27400   8201.3462      7946.6518      361439.62      0.92492778    -104770.17      10618.034     -94152.136    
     27500   8176.0159      6495.3313      361681.78      0.9243085     -104810.17      10585.239     -94224.927    
     27600   8127.8028      5847.7258      361925.7       0.92368555    -104819.98      10522.819     -94297.165    
     27700   8138.6587      5296.0473      362165.87      0.92307302    -104906.87      10536.874     -94369.992    
     27800   8082.5073      5403.8743      362399.47      0.92247801    -104904.59      10464.177     -94440.414    
     27900   8090.7228      4377.3921      362627.8       0.92189717    -104986.68      10474.813     -94511.87     
     28000   8108.3273      3281.6502      362848.96      0.92133526    -105080.92      10497.605     -94583.313    
     28100   7977.1486      3910.6029      363070.2       0.92077384    -104979.92      10327.772     -94652.15     
     28200   8075.8184      4005.1635      363287.76      0.92022242    -105178.57      10455.517     -94723.05     
     28300   7943.8384      3307.3087      363502.43      0.91967897    -105075.8       10284.646     -94791.157    
     28400   7864.146       3778.9397      363714.7       0.91914223    -105041.37      10181.471     -94859.896    
     28500   7958.8801      4492.7955      363920.63      0.91862212    -105232.26      10304.12      -94928.138    
     28600   7888.6217      4527.7452      364125.31      0.91810575    -105210.21      10213.159     -94997.055    
     28700   7806.947       3247.4408      364327.83      0.91759541    -105172.27      10107.417     -95064.853    
     28800   7787.0426      3831.922       364523.02      0.91710405    -105213.9       10081.647     -95132.254    
     28900   7828.4138      5654.4169      364717.19      0.91661581    -105333.9       10135.209     -95198.69     
     29000   7818.6578      4007.1408      364909.16      0.9161336     -105387.67      10122.579     -95265.09     
     29100   7799.169       2537.7387      365098.22      0.91565918    -105429.99      10097.347     -95332.641    
     29200   7763.3007      4498.5434      365284.75      0.91519163    -105450.39      10050.909     -95399.481    
     29300   7708.7686      3517.0738      365471.91      0.91472294    -105445.51      9980.3085     -95465.202    
     29400   7642.741       3267.8166      365657.49      0.91425869    -105426.66      9894.8245     -95531.833    
     29500   7624.2705      2739.3081      365841.75      0.91379823    -105469.23      9870.9113     -95598.322    
     29600   7603.2881      2705.2531      366023.63      0.91334414    -105505.77      9843.7461     -95662.025    
     29700   7567.7776      3646.5512      366198.2       0.91290875    -105523.84      9797.7717     -95726.068    
     29800   7609.8788      3250.1765      366367.22      0.9124876     -105644.01      9852.2788     -95791.731    
     29900   7645.4191      2954.7782      366534.41      0.91207138    -105754.76      9898.2918     -95856.472    
     30000   7533.1643      4162.4144      366702.7       0.91165278    -105674.35      9752.9589     -95921.388    
     30100   7471.8745      2713.5889      366870.49      0.91123585    -105657.31      9673.6088     -95983.697    
     30200   7453.4699      2872.8909      367032.8       0.91083288    -105697.15      9649.781      -96047.364    
     30300   7401.3414      1739.6538      367192.38      0.91043702    -105692.19      9582.2918     -96109.898    
     30400   7355.1244      1275.01        367347.97      0.91005142    -105694.66      9522.4561     -96172.202    
     30500   7383.6048      2928.0149      367502.82      0.90966797    -105793.05      9559.3287     -96233.724    
     30600   7419.5527      3758.7721      367655.2       0.90929095    -105902.21      9605.8694     -96296.341    
     30700   7372.1139      3831.6181      367806.67      0.90891646    -105903.74      9544.4519     -96359.285    
     30800   7370.3283      1300.3811      367956.75      0.90854575    -105960.87      9542.1401     -96418.733    
     30900   7345.1085      3590.9991      368101.53      0.9081884     -105989.84      9509.4888     -96480.352    
     31000   7301.7597      1115.8108      368247.83      0.9078276     -105995.26      9453.3664     -96541.89     
     31100   7254.3005      1987.7027      368393.78      0.90746793    -105994.22      9391.9224     -96602.299    
     31200   7235.0872      3463.1169      368538.02      0.90711275    -106030.84      9367.0476     -96663.789    
     31300   7224.3919      3715.8291      368683.82      0.90675403    -106078.43      9353.2006     -96725.234    
     31400   7195.9827      2044.6346      368830.76      0.90639279    -106100.75      9316.4201     -96784.331    
     31500   7189.3578      1995.8983      368978.66      0.90602948    -106151.1       9307.8431     -96843.253    
     31600   7213.9079      2515.6417      369123.21      0.90567467    -106242.18      9339.6273     -96902.555    
     31700   7165.026       1858.8811      369268.15      0.90531919    -106239.69      9276.3414     -96963.347    
     31800   7059.9948      1678.2304      369407.8       0.90497695    -106162.44      9140.3607     -97022.078    
     31900   7085.7475      1816.1421      369546.61      0.90463701    -106254.23      9173.702      -97080.525    
     32000   7077.7769      3584.1222      369683.61      0.90430178    -106300.89      9163.3826     -97137.502    
     32100   6993.1024      1118.6009      369821.27      0.90396515    -106248.1       9053.7572     -97194.34     
     32200   7015.0612      3793.7307      369954.2       0.90364035    -106332.89      9082.1865     -97250.704    
     32300   7013.6059      947.69229      370083.43      0.9033248     -106387.19      9080.3024     -97306.889    
     32400   6989.3144      1975.2148      370204.85      0.90302853    -106413.41      9048.853      -97364.559    
     32500   7024.9394      2237.4246      370316.31      0.90275672    -106517.95      9094.9756     -97422.976    
     32600   6963.0277      2424.5529      370427.42      0.90248596    -106494.25      9014.8204     -97479.431    
     32700   6878.4338     -270.3877       370536.81      0.90221952    -106440.77      8905.2992     -97535.474    
     32800   6993.9486      1046.1762      370640.47      0.90196718    -106648.42      9054.8527     -97593.57     
     32900   7030.331       3140.6306      370742.24      0.90171959    -106752.42      9101.956      -97650.468    
     33000   6883.3634      535.64891      370844.25      0.90147155    -106618.82      8911.6814     -97707.142    
     33100   6846.7097      1955.2523      370940.95      0.90123655    -106626.59      8864.227      -97762.361    
     33200   6869.7321      1413.2768      371035.65      0.90100653    -106711.69      8894.0334     -97817.658    
     33300   6848.43        2115.6041      371127.69      0.90078307    -106738.51      8866.4542     -97872.058    
     33400   6784.3163     -288.71635      371220.2       0.90055858    -106709.51      8783.4482     -97926.063    
     33500   6754.7241      2108.9175      371309.7       0.90034152    -106725.57      8745.136      -97980.437    
     33600   6769.6969      934.40186      371396.77      0.90013046    -106799.19      8764.5209     -98034.668    
     33700   6788.1196      2332.0004      371482.88      0.89992179    -106877.16      8788.3722     -98088.783    
     33800   6761.6442      1330.2565      371569.06      0.89971307    -106895.16      8754.0952     -98141.062    
     33900   6717.2773      1231.0642      371650.13      0.89951683    -106891.59      8696.6548     -98194.939    
     34000   6742.6453      798.58947      371730.17      0.89932314    -106977.4       8729.498      -98247.898    
     34100   6633.7668      1479.9269      371807.79      0.89913538    -106889.57      8588.5363     -98301.029    
     34200   6693.4724      1187.2529      371885.84      0.89894668    -107020.71      8665.8353     -98354.876    
     34300   6618.9624     -212.93784      371963.19      0.89875975    -106975.04      8569.3695     -98405.674    
     34400   6678.7321      1287.1832      372038.79      0.8985771     -107104.86      8646.7516     -98458.105    
     34500   6624.6547      1564.2976      372118.59      0.89838441    -107085.47      8576.7392     -98508.735    
     34600   6556.2154     -207.16159      372195.43      0.89819894    -107049.31      8488.1328     -98561.177    
     34700   6556.4413      309.95616      372265.23      0.89803053    -107102.28      8488.4254     -98613.85     
     34800   6586.9548      1398.6746      372333.01      0.89786706    -107194.21      8527.9303     -98666.279    
     34900   6574.4356      1377.3576      372403.21      0.89769779    -107228.52      8511.722      -98716.8      
     35000   6480.1977      684.42858      372469.21      0.89753872    -107156.92      8389.715      -98767.202    
     35100   6482.0302      297.47935      372529.38      0.89739377    -107208.26      8392.0875     -98816.176    
     35200   6424.071       1050.1015      372586.29      0.89725668    -107184.44      8317.0495     -98867.388    
     35300   6448.903       2238.8579      372645.4       0.89711436    -107266.75      8349.1987     -98917.556    
     35400   6468.545       2104.8952      372707.21      0.89696559    -107342.35      8374.6287     -98967.72     
     35500   6433.7115      1531.5552      372770.28      0.89681384    -107346.25      8329.5308     -99016.724    
     35600   6350.6186      296.27077      372828.66      0.8966734     -107288.01      8221.953      -99066.06     
     35700   6410.7806      1235.2406      372884.42      0.89653931    -107414.69      8299.8428     -99114.843    
     35800   6436.906      -131.65569      372935.72      0.89641598    -107498.36      8333.6666     -99164.692    
     35900   6406.4274      1765.3378      372981.84      0.89630515    -107508.07      8294.2069     -99213.867    
     36000   6394.8871     -1140.5849      373026.22      0.8961985     -107541.9       8279.266      -99262.638    
     36100   6326.2405      580.72576      373067.86      0.89609848    -107502.13      8190.3914     -99311.743    
     36200   6344.9893     -529.04325      373109.25      0.89599907    -107574.63      8214.6649     -99359.963    
     36300   6280.6452     -638.24996      373146.16      0.89591045    -107538.72      8131.3605     -99407.364    
     36400   6217.5589     -150.94493      373179.39      0.89583066    -107504.91      8049.6845     -99455.227    
     36500   6215.3602      662.65466      373212.49      0.89575122    -107549.83      8046.838      -99502.993    
     36600   6280.7219      423.16887      373244.81      0.89567365    -107681.76      8131.4598     -99550.299    
     36700   6232.6073     -1628.0745      373273.8       0.89560408    -107665.38      8069.1673     -99596.218    
     36800   6169.9164      407.95629      373290.05      0.89556511    -107630.22      7988.0033     -99642.213    
     36900   6109.5861     -557.998        373303.1       0.8955338     -107599.03      7909.8955     -99689.138    
     37000   6115.6822     -1926.7862      373312.2       0.89551195    -107653.43      7917.7879     -99735.642    
     37100   6180.2665     -1958.21        373316.02      0.89550281    -107784.85      8001.4033     -99783.446    
     37200   6052.1111     -1604.2362      373320.16      0.89549288    -107665.33      7835.4844     -99829.843    
     37300   6137.1676     -663.20016      373319.06      0.89549551    -107824.23      7945.6044     -99878.628    
     37400   6150.0271      20.41673       373318.38      0.89549714    -107888.62      7962.2532     -99926.371    
     37500   6118.0011     -248.80689      373321.03      0.89549078    -107893.86      7920.7902     -99973.067    
     37600   6155.5644      51.922412      373325.11      0.89548099    -107988.85      7969.4222     -100019.43    
     37700   6028.0734     -586.66149      373331.89      0.89546473    -107869.17      7804.3635     -100064.8     
     37800   6090.0699     -211.89306      373339.68      0.89544604    -107995.35      7884.6284     -100110.72    
     37900   6020.2104      450.76914      373347.71      0.8954268     -107949.13      7794.1835     -100154.94    
     38000   6086.8335     -79.999407      373354.05      0.89541157    -108080.71      7880.4384     -100200.27    
     38100   6004.8545     -402.46164      373359.09      0.8953995     -108019.31      7774.3027     -100245.01    
     38200   6018.0871     -499.34968      373363.09      0.8953899     -108082.21      7791.4345     -100290.78    
     38300   5991.0842      738.97127      373368.49      0.89537696    -108090.66      7756.4747     -100334.19    
     38400   5924.0384     -1543.1187      373375.53      0.89536006    -108049.34      7669.6725     -100379.66    
     38500   6006.2164      0.73423526     373382.41      0.89534358    -108199.17      7776.0659     -100423.11    
     38600   5911.8825      404.0734       373388.81      0.89532822    -108121.47      7653.9347     -100467.53    
     38700   5927.7377     -759.65517      373392.15      0.89532023    -108185.48      7674.4619     -100511.02    
     38800   6018.656      -664.51903      373393.27      0.89531754    -108347.93      7792.171      -100555.76    
     38900   5908.7501     -75.70918       373395.39      0.89531245    -108249.24      7649.8792     -100599.36    
     39000   5927.8751     -1431.9764      373396.53      0.89530972    -108315.97      7674.6398     -100641.33    
     39100   5891.9006     -1287.3106      373392.79      0.89531868    -108312.04      7628.0647     -100683.98    
     39200   5890.5799     -1129.758       373383.89      0.89534002    -108352.87      7626.3548     -100726.51    
     39300   5815.1929     -1046.0086      373368.35      0.89537728    -108298.41      7528.7536     -100769.66    
     39400   5809.8411     -501.66888      373349.16      0.89542332    -108335.03      7521.8248     -100813.21    
     39500   5812.5929     -958.57063      373328.81      0.89547213    -108381.24      7525.3874     -100855.85    
     39600   5802.1384     -1040.8909      373303.09      0.89553383    -108409.17      7511.8523     -100897.32    
     39700   5802.4301     -912.75067      373268.48      0.89561686    -108452.65      7512.2299     -100940.42    
     39800   5756.6254     -828.48441      373229.97      0.89570926    -108435.91      7452.928      -100982.98    
     39900   5729.1418     -455.01206      373190.26      0.89580458    -108441.17      7417.3459     -101023.82    
     40000   5785.0176      3.601151       373153.42      0.89589301    -108557.17      7489.6865     -101067.48    
     40100   5737.5545     -1875.7367      373119.73      0.89597391    -108536.06      7428.2374     -101107.82    
     40200   5757.0069     -706.5821       373081.9       0.89606476    -108604.05      7453.4219     -101150.63    
     40300   5772.0899     -956.71951      373041.2       0.89616253    -108665.75      7472.9494     -101192.8     
     40400   5738.791       825.51271      372995.57      0.89627215    -108664.44      7429.8383     -101234.6     
     40500   5675.352       1155.7005      372950.88      0.89637955    -108623.83      7347.7057     -101276.12    
     40600   5691.4998     -917.76395      372906.25      0.89648683    -108686.04      7368.6118     -101317.43    
     40700   5720.7143     -66.742018      372860.74      0.89659625    -108765.97      7406.435      -101359.53    
     40800   5657.133       480.14228      372815.82      0.89670429    -108724.59      7324.1182     -101400.47    
     40900   5629.1207     -1851.2396      372772.43      0.89680864    -108728.17      7287.8515     -101440.32    
     41000   5616.2264     -1578.6677      372721.38      0.89693149    -108754.98      7271.1576     -101483.82    
     41100   5652.9611     -142.36394      372665.46      0.89706608    -108841.92      7318.7169     -101523.21    
     41200   5608.0556     -311.28719      372607.3       0.8972061     -108823.03      7260.5791     -101562.45    
     41300   5631.2194     -464.67474      372549.5       0.89734529    -108893.11      7290.5687     -101602.54    
     41400   5586.0763     -1544.9336      372490.21      0.89748814    -108874.11      7232.1233     -101641.98    
     41500   5568.5228     -1690.962       372427.96      0.89763814    -108891.57      7209.3973     -101682.17    
     41600   5579.615      -1096.4762      372359.85      0.89780234    -108946.4       7223.758      -101722.64    
     41700   5559.8816     -1645.2159      372290.38      0.89796987    -108962.3       7198.2098     -101764.09    
     41800   5564.0207     -769.70599      372215.91      0.89814953    -109006.37      7203.5686     -101802.8     
     41900   5547.2337     -745.82362      372141.12      0.89833002    -109023.68      7181.8349     -101841.85    
     42000   5536.2507     -1370.8723      372068.26      0.89850593    -109047.68      7167.6156     -101880.06    
     42100   5522.3131     -1693.1967      371990.01      0.89869494    -109069.5       7149.5709     -101919.93    
     42200   5541.3934     -710.10721      371912.96      0.89888113    -109134.68      7174.2737     -101960.41    
     42300   5511.7625     -1870.1198      371838.26      0.89906172    -109134.46      7135.9115     -101998.55    
     42400   5438.4735      45.07151       371761.77      0.89924668    -109077.62      7041.0264     -102036.59    
     42500   5512.9856     -1003.5569      371682.84      0.89943766    -109214.96      7137.4949     -102077.47    
     42600   5475.6746     -725.19635      371602.29      0.89963263    -109205.46      7089.1896     -102116.27    
     42700   5427.5033     -1116.128       371518.98      0.89983435    -109182.12      7026.8236     -102155.3     
     42800   5487.1736     -1456.6643      371431.23      0.90004694    -109297.31      7104.0769     -102193.23    
     42900   5446.3673     -1307.0085      371343.2       0.90026029    -109283.2       7051.2462     -102231.95    
     43000   5439.2976     -2022.4534      371254.68      0.90047496    -109312.1       7042.0933     -102270       
     43100   5394.4329      538.17769      371167.01      0.90068765    -109292.34      6984.0084     -102308.33    
     43200   5441.6962     -921.45085      371081.23      0.90089586    -109392.19      7045.1987     -102346.99    
     43300   5454.1639     -642.50372      371003.54      0.90108449    -109445.87      7061.3402     -102384.53    
     43400   5435.7259     -2277.9515      370926.5       0.90127167    -109458.25      7037.4691     -102420.78    
     43500   5373.2603     -1003.8243      370843.08      0.90147439    -109414.3       6956.5969     -102457.7     
     43600   5357.7775     -1161.6216      370757.06      0.90168355    -109431.98      6936.5518     -102495.43    
     43700   5376.8527     -675.5075       370669.62      0.90189626    -109494.29      6961.2478     -102533.04    
     43800   5332.7581      1429.7599      370579         0.9021168     -109473.69      6904.1599     -102569.53    
     43900   5332.8385     -973.21207      370489.13      0.90233563    -109512.05      6904.264      -102607.79    
     44000   5300.7777     -779.15134      370398.33      0.90255682    -109507.92      6862.7558     -102645.17    
     44100   5371.1768     -1542.6537      370304.39      0.9027858     -109636.5       6953.8994     -102682.6     
     44200   5374.1808      62.603386      370211.24      0.90301295    -109679.43      6957.7886     -102721.64    
     44300   5339.1612      179.90733      370123.06      0.90322808    -109671.79      6912.4498     -102759.34    
     44400   5261.34       -1572.6568      370035.82      0.90344102    -109608.36      6811.697      -102796.67    
     44500   5312.6851     -345.26663      369947.61      0.90365644    -109710.2       6878.172      -102832.03    
     44600   5236.1625     -1191.9989      369862.93      0.90386334    -109648.53      6779.1005     -102869.43    
     44700   5257.3107     -1501.8308      369779.59      0.90406705    -109711.01      6806.4804     -102904.53    
     44800   5192.2542     -1860.1572      369695.32      0.90427312    -109663.27      6722.2537     -102941.02    
     44900   5218.8056     -1914.1301      369602.67      0.90449981    -109733.34      6756.629      -102976.71    
     45000   5249.9612     -645.92243      369503.87      0.90474165    -109807.81      6796.9652     -103010.84    
     45100   5268.4796     -1429.06        369405.2       0.90498332    -109866.97      6820.9405     -103046.03    
     45200   5239.224      -1039.8908      369303.3       0.90523301    -109866.79      6783.0641     -103083.73    
     45300   5205.5993     -1797.1605      369201.04      0.90548374    -109859.38      6739.5312     -103119.84    
     45400   5184.4862     -1297.7704      369097.53      0.90573769    -109869.27      6712.1968     -103157.07    
     45500   5182.3015     -1870.9067      368992.13      0.9059964     -109901.14      6709.3682     -103191.78    
     45600   5180.7087     -1152.0294      368886.19      0.9062566     -109934.11      6707.3062     -103226.8     
     45700   5178.364      -743.3603       368777.25      0.90652432    -109966.24      6704.2706     -103261.97    
     45800   5160.7067     -1121.7141      368664.44      0.90680171    -109979.02      6681.4101     -103297.61    
     45900   5191.0883     -1616.3875      368553.28      0.90707521    -110054.52      6720.7443     -103333.78    
     46000   5158.05       -1263.5985      368443.34      0.90734587    -110046.53      6677.9705     -103368.56    
     46100   5183.3185     -646.50851      368337.05      0.90760769    -110115.13      6710.685      -103404.45    
     46200   5147.7101     -539.8734       368230.64      0.90786998    -110103.86      6664.5839     -103439.28    
     46300   5165.0986     -2030.1552      368122.07      0.90813774    -110160.71      6687.0962     -103473.61    
     46400   5141.7595     -441.29031      368011.67      0.90841017    -110165.08      6656.8798     -103508.2     
     46500   5111.8919     -1156.571       367902.78      0.90867903    -110162.97      6618.2111     -103544.76    
     46600   5161.2909     -1048.9784      367799.04      0.90893532    -110262.63      6682.1665     -103580.46    
     46700   5116.1199     -414.95101      367698.54      0.90918377    -110238.21      6623.6849     -103614.52    
     46800   5129.5302      76.440689      367598.49      0.90943121    -110289.67      6641.0469     -103648.62    
     46900   5042.615      -1586.9697      367502.7       0.90966826    -110210.73      6528.5204     -103682.21    
     47000   5111.4926     -1472.9638      367405.55      0.9099088     -110334.84      6617.6941     -103717.15    
     47100   4982.1413     -808.4171       367306.68      0.91015373    -110200.72      6450.2269     -103750.49    
     47200   5065.8137     -2458.0897      367208.29      0.91039759    -110343.2       6558.555      -103784.64    
     47300   5042.5006     -323.55954      367105.66      0.91065211    -110348.24      6528.3723     -103819.87    
     47400   5079.6217     -964.03196      367005.17      0.91090144    -110430.61      6576.4319     -103854.18    
     47500   5042.1363     -891.21157      366907.18      0.91114473    -110415.79      6527.9006     -103887.89    
     47600   5042.8479     -1622.3579      366813.58      0.91137722    -110450.66      6528.8219     -103921.84    
     47700   5044.6099     -1030.07        366721.14      0.91160696    -110486.07      6531.1031     -103954.97    
     47800   5028.5844     -1469.1523      366627.61      0.9118395     -110499.11      6510.3555     -103988.75    
     47900   5049.5417     -485.6368       366530.9       0.91208011    -110560.04      6537.4882     -104022.55    
     48000   4954.7164     -1985.0607      366432.69      0.91232455    -110470.56      6414.7208     -104055.84    
     48100   5042.6507     -245.5462       366334.1       0.91257009    -110618.89      6528.5666     -104090.32    
     48200   5017.5954     -1324.5848      366238         0.91280955    -110618.87      6496.1282     -104122.74    
     48300   4985.2168     -1355.0943      366146.85      0.91303679    -110610.28      6454.2087     -104156.07    
     48400   4977.8437     -1312.1337      366054.65      0.91326675    -110634.1       6444.663      -104189.44    
     48500   4959.1109     -737.07292      365962.4       0.91349696    -110642.88      6420.4102     -104222.47    
     48600   4999.7682      312.10046      365873.46      0.91371902    -110728.04      6473.0479     -104255       
     48700   4980.2398     -765.43668      365785.47      0.91393882    -110736.3       6447.7651     -104288.53    
     48800   4940.3082     -639.72627      365693.53      0.9141686     -110717.3       6396.0669     -104321.23    
     48900   4977.3638     -1432.1831      365603.35      0.91439409    -110796.21      6444.0416     -104352.17    
     49000   4930.5352     -2068.2556      365509.54      0.91462876    -110767.02      6383.4141     -104383.6     
     49100   4941.7665     -306.50928      365408.29      0.91488221    -110814.14      6397.9549     -104416.19    
     49200   4903.2952     -1483.8628      365304.96      0.91514099    -110795.78      6348.1473     -104447.63    
     49300   4934.4678     -2101.6672      365197.68      0.91540981    -110870.18      6388.5055     -104481.68    
     49400   4899.2608     -536.08887      365087.45      0.9156862     -110855.99      6342.9241     -104513.06    
     49500   4877.6749     -1186.1619      364975.31      0.91596755    -110859.89      6314.9774     -104544.92    
     49600   4882.9684     -811.40149      364863.68      0.91624778    -110899.96      6321.8308     -104578.13    
     49700   4877.4499     -89.030208      364755.13      0.91652047    -110926.28      6314.6862     -104611.59    
     49800   4888.3449     -1597.2308      364654.03      0.91677457    -110971.36      6328.7916     -104642.57    
     49900   4852.4535     -617.64165      364554.09      0.9170259     -110955.97      6282.3241     -104673.64    
     50000   4908.0876     -1613.3543      364453.11      0.91727997    -111059.67      6354.3519     -104705.32    
     50100   4826.6185     -466.69672      364354.56      0.91752809    -110985.02      6248.8763     -104736.15    
     50200   4831.8674      580.18394      364256.44      0.91777524    -111022.41      6255.6719     -104766.73    
     50300   4861.7705      94.836249      364161.34      0.91801492    -111091.01      6294.3865     -104796.62    
     50400   4800.9156     -1547.3676      364065.74      0.91825596    -111042.6       6215.5995     -104827       
     50500   4836.7283     -1668.1973      363963.19      0.91851471    -111119.55      6261.9651     -104857.58    
     50600   4807.0758     -665.61887      363854.64      0.91878872    -111112.2       6223.575      -104888.62    
     50700   4820.5071     -1325.8663      363743.08      0.91907052    -111161.3       6240.964      -104920.34    
     50800   4789.961      -3004.3276      363628.79      0.91935938    -111152.6       6201.4169     -104951.18    
     50900   4772.3671     -1787.784       363506.66      0.91966827    -111162.23      6178.6386     -104983.59    
     51000   4842.2546     -306.14672      363384.8       0.91997668    -111283.72      6269.1199     -105014.6     
     51100   4770.0271     -1165.8829      363267.13      0.92027467    -111219.49      6175.6091     -105043.88    
     51200   4732.8895     -2110.7006      363150.85      0.92056936    -111201.5       6127.5282     -105073.97    
     51300   4761.59       -1041.5897      363032.83      0.92086863    -111270.03      6164.6859     -105105.35    
     51400   4780.6784     -281.80324      362914.59      0.92116866    -111326.95      6189.399      -105137.55    
     51500   4748.4683      276.28764      362800.43      0.92145851    -111316.59      6147.6977     -105168.89    
     51600   4762.7874     -94.79827       362690.74      0.92173719    -111365.78      6166.2361     -105199.54    
     51700   4707.1177     -1499.6824      362582.05      0.92201349    -111324.17      6094.1622     -105230.01    
     51800   4739.9488     -1932.739       362477.51      0.92227941    -111396.01      6136.6677     -105259.35    
     51900   4780.5287     -620.84292      362371.91      0.92254817    -111480.03      6189.2053     -105290.83    
     52000   4747.7173      223.17619      362266.78      0.9228159     -111468.29      6146.7253     -105321.56    
     52100   4731.8943     -165.99337      362164.35      0.92307688    -111477.5       6126.2397     -105351.27    
     52200   4760.7518     -572.37775      362059.44      0.92334435    -111544.38      6163.6007     -105380.78    
     52300   4727.3217     -1681.7298      361955.18      0.92361032    -111531.65      6120.3198     -105411.33    
     52400   4689.4236      84.215622      361852.91      0.92387137    -111513.73      6071.2543     -105442.48    
     52500   4684.8384     -2192.8939      361754.05      0.92412383    -111536.69      6065.3179     -105471.37    
     52600   4665.7925     -1792.6265      361652.57      0.92438316    -111539.83      6040.6598     -105499.17    
     52700   4663.1049     -1458.0688      361545.67      0.92465645    -111567.39      6037.1802     -105530.21    
     52800   4642.2782     -184.04763      361443.38      0.92491814    -111570.89      6010.2165     -105560.67    
     52900   4724.7264     -1868.8877      361347.43      0.92516373    -111704.49      6116.9597     -105587.53    
     53000   4633.3176     -1161.5589      361247.35      0.92542004    -111615.33      5998.6155     -105616.71    
     53100   4642.9737     -2312.9546      361146.32      0.92567893    -111656.29      6011.117      -105645.18    
     53200   4610.5956     -1394.8006      361043.14      0.92594348    -111642.43      5969.198      -105673.23    
     53300   4575.802       56.915849      360937.86      0.92621357    -111626.87      5924.1518     -105702.72    
     53400   4611.3363      1736.3816      360832.84      0.92648315    -111704.74      5970.157      -105734.58    
     53500   4636.3015      944.43364      360733.9       0.92673725    -111765.07      6002.4786     -105762.59    
     53600   4640.623      -268.91537      360637.8       0.92698419    -111800.63      6008.0736     -105792.56    
     53700   4624.872      -1154.3885      360545.47      0.92722159    -111808.28      5987.6813     -105820.6     
     53800   4589.2146     -453.65979      360453.05      0.92745932    -111789.87      5941.5167     -105848.35    
     53900   4600.3605      299.98528      360357.3       0.92770576    -111834.72      5955.947      -105878.77    
     54000   4618.3041     -2905.3155      360260.46      0.92795514    -111883.78      5979.178      -105904.6     
     54100   4561.1111     -876.4564       360159.4       0.9282155     -111839.82      5905.132      -105934.69    
     54200   4541.1741     -797.59359      360058.04      0.92847681    -111842.15      5879.3201     -105962.83    
     54300   4566.8575     -1509.6819      359952.95      0.92874788    -111903.89      5912.5716     -105991.32    
     54400   4560.7611     -3036.2988      359842.82      0.92903212    -111923.7       5904.6788     -106019.02    
     54500   4560.6706     -1547.5082      359730.82      0.92932138    -111951.45      5904.5616     -106046.89    
     54600   4578.1149     -635.29858      359618.49      0.92961165    -112001.87      5927.1462     -106074.73    
     54700   4569.2499     -1572.2939      359508.88      0.9298951     -112018.35      5915.6691     -106102.69    
     54800   4519.1355     -690.3282       359402.83      0.93016948    -111980.27      5850.7874     -106129.48    
     54900   4533.4693     -3525.0576      359295.13      0.93044828    -112024.74      5869.3449     -106155.39    
     55000   4540.8885     -467.5219       359179.86      0.9307469     -112063.21      5878.9504     -106184.26    
     55100   4514.5229      428.63041      359065.14      0.93104427    -112057.81      5844.8156     -106213       
     55200   4494.2682      158.81105      358953.87      0.93133289    -112059.9       5818.5924     -106241.3     
     55300   4504.5078     -1557.5818      358850.15      0.93160207    -112100.61      5831.8493     -106268.76    
     55400   4439.4397     -1904.6071      358748.74      0.93186541    -112044.29      5747.6077     -106296.68    
     55500   4459.3282     -1371.3853      358646.53      0.93213097    -112098.3       5773.3567     -106324.94    
     55600   4515.4678     -1006.83        358551.7       0.93237752    -112198.52      5846.0389     -106352.48    
     55700   4451.5759     -1061.4839      358463.72      0.93260634    -112143.07      5763.32       -106379.75    
     55800   4469.1865     -347.31932      358375.02      0.93283717    -112194.12      5786.1199     -106408       
     55900   4466.4334     -1494.8392      358285.94      0.93306912    -112217.02      5782.5556     -106434.47    
     56000   4497.7461     -682.57707      358197.4       0.93329973    -112282.93      5823.0952     -106459.84    
     56100   4381.7283     -1040.4867      358109.83      0.93352795    -112158.4       5672.8905     -106485.51    
     56200   4437.5474     -1145.8054      358024.63      0.93375011    -112258.39      5745.1578     -106513.23    
     56300   4455.1752     -660.05635      357937.63      0.93397707    -112308.59      5767.9799     -106540.61    
     56400   4444.0992     -1799.4087      357850.6       0.93420423    -112322.39      5753.6402     -106568.75    
     56500   4435.4564     -1688.7882      357761.91      0.93443581    -112338.14      5742.4506     -106595.69    
     56600   4435.9257     -821.76551      357672.31      0.93466989    -112364.74      5743.0582     -106621.68    
     56700   4462.5761      1050.9726      357583.43      0.93490221    -112427.26      5777.5616     -106649.7     
     56800   4467.5953      329.87311      357498.79      0.93512357    -112461.04      5784.0599     -106676.98    
     56900   4365.8471     -1052.7014      357416.55      0.93533873    -112356.96      5652.3295     -106704.63    
     57000   4453.1979     -491.46819      357332.46      0.93555884    -112497.97      5765.4201     -106732.55    
     57100   4423.275      -2154.379       357252.99      0.93576695    -112485.18      5726.6798     -106758.5     
     57200   4415.9149     -688.48074      357174.73      0.93597199    -112500.32      5717.1508     -106783.17    
     57300   4411.1612     -1030.7123      357099.21      0.93616992    -112519.47      5710.9964     -106808.47    
     57400   4372.9062     -961.99051      357024.56      0.93636567    -112494.24      5661.4688     -106832.77    
     57500   4401.832      -1953.4034      356951.15      0.93655824    -112556.97      5698.9181     -106858.05    
     57600   4300.4795     -1354.8356      356872.18      0.93676548    -112450.75      5567.7001     -106883.05    
     57700   4358.6794     -177.47081      356788.24      0.93698587    -112551.79      5643.0498     -106908.74    
     57800   4323.8902     -1491.0477      356704.23      0.93720655    -112532.55      5598.0092     -106934.54    
     57900   4304.5274     -1822.0196      356620.24      0.93742728    -112533.07      5572.9409     -106960.13    
     58000   4352.0403     -771.36327      356531.8       0.93765982    -112620.35      5634.4544     -106985.9     
     58100   4313.0748     -267.91258      356440.7       0.93789946    -112596.35      5584.0069     -107012.35    
     58200   4332.0474     -1521.6196      356352.88      0.93813059    -112645.65      5608.5701     -107037.08    
     58300   4326.2641     -733.6291       356265.95      0.93835952    -112661.74      5601.0827     -107060.66    
     58400   4260.8806     -1890.7187      356178.29      0.93859045    -112601.42      5516.4327     -107084.99    
     58500   4304.9684     -1670.0912      356083.4       0.93884058    -112683.36      5573.5118     -107109.85    
     58600   4339.0958     -470.29766      355983.55      0.93910391    -112752.66      5617.6954     -107134.97    
     58700   4294.5555     -1508.6991      355886.15      0.93936091    -112720.35      5560.0306     -107160.32    
     58800   4322.5101      280.72684      355787.49      0.9396214     -112782.97      5596.2225     -107186.75    
     58900   4274.9563     -275.32335      355692.44      0.9398725     -112746.61      5534.656      -107211.95    
     59000   4294.8463     -525.01516      355598.9       0.94011974    -112798.35      5560.407      -107237.94    
     59100   4276.7238     -1045.8852      355503.96      0.9403708     -112798.7       5536.9443     -107261.76    
     59200   4304.9685     -1102.9077      355404.87      0.94063298    -112860.57      5573.5118     -107287.06    
     59300   4269.4279     -1310.9967      355309.01      0.94088675    -112841.49      5527.4986     -107313.99    
     59400   4259.0376     -705.1296       355218.16      0.94112739    -112852.26      5514.0466     -107338.21    
     59500   4264.6724     -572.62739      355132.14      0.94135537    -112884.84      5521.3418     -107363.5     
     59600   4235.3811     -1223.6181      355044.65      0.94158732    -112871.56      5483.4192     -107388.14    
     59700   4281.6354     -1166.7009      354956.33      0.94182162    -112954.8       5543.3032     -107411.5     
     59800   4248.3587     -339.68747      354869.69      0.94205154    -112936.27      5500.2209     -107436.05    
     59900   4179.9666     -1008.6608      354787         0.94227112    -112870.9       5411.6758     -107459.22    
     60000   4193.6447      120.48967      354702.03      0.94249685    -112913.16      5429.3844     -107483.78    
     60100   4184.6377     -1299.2902      354616.94      0.94272299    -112924.4       5417.7233     -107506.68    
     60200   4178.3356     -691.76954      354529.63      0.94295515    -112940.69      5409.5641     -107531.13    
     60300   4199.8464      328.45852      354445.42      0.94317917    -112993.54      5437.4135     -107556.13    
     60400   4207.346       755.84346      354368.22      0.94338465    -113026.48      5447.123      -107579.36    
     60500   4156.5551     -1983.7865      354294.23      0.94358167    -112984.25      5381.3656     -107602.88    
     60600   4152.8068     -1551.0351      354217.34      0.94378648    -113003.19      5376.5128     -107626.67    
     60700   4212.8494     -201.90451      354139.81      0.94399312    -113104.48      5454.2481     -107650.23    
     60800   4204.7099     -1788.751       354063.36      0.94419695    -113118.72      5443.7101     -107675.01    
     60900   4153.4766     -1695.1057      353984.96      0.94440607    -113076.32      5377.3799     -107698.94    
     61000   4173.4388     -1052.0603      353906.28      0.94461603    -113127.4       5403.2244     -107724.18    
     61100   4158.4487     -71.618364      353827.81      0.9448255     -113131.04      5383.8172     -107747.23    
     61200   4171.6155     -339.0991       353750.9       0.94503092    -113171.81      5400.8639     -107770.95    
     61300   4187.375       861.40963      353682.69      0.94521319    -113215.33      5421.2672     -107794.06    
     61400   4191.973       81.089621      353620.29      0.94537998    -113243.32      5427.2201     -107816.1     
     61500   4142.8636      326.42989      353561.66      0.94553675    -113202         5363.6396     -107838.37    
     61600   4127.2573     -1778.3818      353506.2       0.94568509    -113203.5       5343.4347     -107860.06    
     61700   4151.5163     -1910.6141      353445.63      0.94584715    -113257.43      5374.8419     -107882.59    
     61800   4098.0481     -939.81524      353381.58      0.94601858    -113211.67      5305.6183     -107906.05    
     61900   4111.9105     -1182.745       353317.19      0.94619098    -113251.43      5323.5655     -107927.86    
     62000   4109.121      -2417.1468      353248.56      0.94637482    -113269.88      5319.9541     -107949.93    
     62100   4149.5627     -881.89551      353168.85      0.94658842    -113347.05      5372.3127     -107974.74    
     62200   4100.8296     -2273.5082      353083.98      0.94681594    -113307.13      5309.2194     -107997.91    
     62300   4086.3029     -1190.3024      352995.32      0.94705375    -113311.54      5290.4122     -108021.12    
     62400   4140.3689      93.550824      352907.06      0.9472906     -113403.1       5360.4098     -108042.69    
     62500   4058.521      -525.41893      352824.8       0.94751147    -113320.03      5254.4439     -108065.59    
     62600   4087.3738     -1020.3169      352743.94      0.94772865    -113376.8       5291.7987     -108085       
[...]
    984500   2993.7236     -718.05803      151880.2       2.2011134     -116625.52      3875.8829     -112749.64    
    984600   2991.7888     -2290.4831      151918.68      2.2005558     -116623.26      3873.3781     -112749.88    
    984700   2953.3845     -102.77194      151955.24      2.2000264     -116574.42      3823.6571     -112750.76    
    984800   2978.0824     -2601.0055      151990.01      2.1995231     -116608.09      3855.6328     -112752.46    
    984900   2956.8367     -553.30339      152021.62      2.1990658     -116580.47      3828.1267     -112752.35    
    985000   2970.1573      963.66416      152050.49      2.1986482     -116600.44      3845.3724     -112755.07    
    985100   2942.3072     -4015.0207      152076.63      2.1982704     -116564.68      3809.3157     -112755.36    
    985200   2947.2439      1584.287       152098.05      2.1979608     -116573.29      3815.7072     -112757.58    
    985300   2976.7001     -4923.4696      152118.2       2.1976696     -116612.08      3853.8431     -112758.24    
    985400   2976.288      -1977.4832      152136.41      2.1974065     -116612.9       3853.3096     -112759.59    
    985500   2961.6281     -3737.4844      152152.29      2.1971773     -116594.61      3834.3299     -112760.28    
    985600   2982.7004      354.97885      152165.42      2.1969876     -116623.6       3861.6116     -112761.99    
    985700   2954.8872      598.03546      152177.29      2.1968162     -116589.55      3825.6027     -112763.95    
    985800   2949.0451      1185.9471      152187.95      2.1966623     -116582.31      3818.0391     -112764.27    
    985900   2957.4426     -2778.4657      152197.77      2.1965206     -116593.99      3828.911      -112765.08    
    986000   2955.3053     -1895.5357      152204.01      2.1964306     -116592.06      3826.1439     -112765.92    
    986100   2980.4368     -1585.0203      152207.87      2.1963749     -116625.38      3858.681      -112766.7     
    986200   2960.4407      608.60728      152209.46      2.196352      -116600.83      3832.7927     -112768.04    
    986300   2968.2976     -193.43219      152209.4       2.1963528     -116612.42      3842.9647     -112769.46    
    986400   2952.229      -810.32599      152207.84      2.1963753     -116592.36      3822.1612     -112770.2     
    986500   2935.7847      1377.1987      152203.68      2.1964353     -116571.96      3800.8713     -112771.09    
    986600   2988.3315      947.43861      152199.78      2.1964917     -116640.67      3868.902      -112771.77    
    986700   2983.556      -1638.9802      152196.7       2.1965361     -116636.73      3862.7193     -112774.01    
    986800   2986.2883     -799.91986      152192.55      2.196596      -116640.37      3866.2567     -112774.11    
    986900   2969.5509      2423.3542      152188.59      2.1966531     -116620.85      3844.5873     -112776.26    
    987000   2951.5623     -108.38936      152184.53      2.1967117     -116598.41      3821.298      -112777.12    
    987100   2963.6171     -2248.55        152180.23      2.1967738     -116614.66      3836.905      -112777.76    
    987200   2974.3804     -217.81269      152173         2.1968782     -116629.32      3850.8399     -112778.48    
    987300   2926.8069     -3084.8347      152164.99      2.1969938     -116568.3       3789.2479     -112779.05    
    987400   2963.6509     -2615.4607      152153.63      2.1971578     -116617.12      3836.9488     -112780.18    
    987500   2993.1565     -3087.7202      152139.14      2.1973671     -116656.97      3875.1488     -112781.82    
    987600   2957.3361     -1523.0581      152121.45      2.1976227     -116611.93      3828.7732     -112783.16    
    987700   2970.199      -2012.2588      152100.53      2.1979248     -116630         3845.4264     -112784.58    
    987800   2919.0291     -2632.192       152076.97      2.1982654     -116564         3779.1782     -112784.82    
    987900   2976.1502     -886.61628      152050.04      2.1986547     -116639.31      3853.1313     -112786.18    
    988000   2957.3103     -2591.2862      152020.35      2.1990842     -116616.71      3828.7398     -112787.97    
    988100   2953.0425     -2773.6535      151988.55      2.1995443     -116611.95      3823.2144     -112788.74    
    988200   2960.0417     -953.01673      151955.38      2.2000245     -116621.76      3832.276      -112789.48    
    988300   2978.4316     -667.71682      151919.67      2.2005415     -116645.69      3856.0848     -112789.6     
    988400   2959.2504     -634.57139      151881.3       2.2010975     -116622.3       3831.2516     -112791.04    
    988500   2982.0749     -1879.6751      151840.89      2.2016833     -116653.64      3860.8017     -112792.83    
    988600   2962.9467      41.788642      151797.49      2.2023127     -116629.75      3836.0371     -112793.72    
    988700   2967.1458      3317.2905      151751.14      2.2029853     -116635.82      3841.4735     -112794.34    
    988800   2963.6594      578.46696      151704.92      2.2036565     -116632.3       3836.9598     -112795.34    
    988900   2965.58       -2700.0389      151656.03      2.204367      -116636.04      3839.4463     -112796.59    
    989000   2962.6344      414.23764      151603.95      2.2051243     -116634.36      3835.6328     -112798.73    
    989100   2989.5072     -198.19513      151551.87      2.205882      -116669.61      3870.4241     -112799.19    
    989200   2995.3947      884.26609      151500.41      2.2066312     -116677.92      3878.0465     -112799.88    
    989300   2986.6827     -107.82122      151449.76      2.2073692     -116667.55      3866.7674     -112800.79    
    989400   2980.9883     -225.45065      151398.33      2.208119      -116661.41      3859.395      -112802.02    
    989500   2956.5659     -731.45442      151344.64      2.2089024     -116630.95      3827.776      -112803.17    
    989600   2955.7397     -922.523        151288.58      2.2097209     -116630.38      3826.7063     -112803.68    
    989700   2947.5792     -1429.6489      151231.21      2.2105592     -116620.45      3816.1412     -112804.31    
    989800   2962.4062     -403.35143      151172.43      2.2114187     -116640.05      3835.3372     -112804.72    
    989900   2951.1741      3954.9401      151113.21      2.2122853     -116628.31      3820.7954     -112807.51    
    990000   2946.929       448.67463      151055.13      2.213136      -116624.34      3815.2995     -112809.04    
    990100   2947.9421     -459.69822      150997.5       2.2139807     -116625.2       3816.611      -112808.59    
    990200   2966.6557     -2149.6781      150940.52      2.2148164     -116649.57      3840.839      -112808.73    
    990300   2992.719       211.49238      150882.78      2.215664      -116685.02      3874.5824     -112810.44    
    990400   2948.3739      861.43958      150824.8       2.2165158     -116628.78      3817.1701     -112811.61    
    990500   2967.322      -786.81993      150766.88      2.2173672     -116653.84      3841.7016     -112812.14    
    990600   2974.5956      2961.2946      150708.43      2.2182272     -116664.28      3851.1185     -112813.16    
    990700   2961.0528      64.019596      150649.96      2.2190882     -116648.31      3833.5851     -112814.73    
    990800   2984.1103     -225.27919      150591.32      2.2199522     -116678.24      3863.437      -112814.8     
    990900   2974.7027      1157.6362      150532.24      2.2208236     -116666.97      3851.2572     -112815.71    
    991000   2968.1276      3244.2526      150472.08      2.2217114     -116659.91      3842.7446     -112817.17    
    991100   2969.5901      578.31026      150412.82      2.2225867     -116662.12      3844.638      -112817.48    
    991200   2970.0451      785.36628      150353.47      2.223464      -116664.14      3845.2271     -112818.91    
    991300   2968.8967      242.26411      150294.41      2.2243378     -116662.62      3843.7403     -112818.88    
    991400   2987.3479      3919.6378      150235.14      2.2252153     -116688.63      3867.6286     -112821       
    991500   2981.5953      2660.5224      150178.99      2.2260473     -116682.54      3860.1809     -112822.36    
    991600   2952.5818      748.82857      150126.09      2.2268317     -116644.38      3822.6179     -112821.77    
    991700   2963.4795      1434.8624      150075.93      2.227576      -116659.5       3836.7269     -112822.78    
    991800   2971.1688      1641.4859      150027.5       2.2282951     -116671.01      3846.6819     -112824.33    
    991900   2971.7183     -69.290653      149979.74      2.2290047     -116671.76      3847.3934     -112824.36    
    992000   2921.011       385.82708      149933.56      2.2296911     -116607.1       3781.7442     -112825.36    
    992100   2970.2354      1322.0644      149888.97      2.2303546     -116670.81      3845.4735     -112825.33    
    992200   2966.4709      1084.5397      149846.17      2.2309916     -116668.71      3840.5997     -112828.11    
    992300   2957.2409     -1207.3969      149805.38      2.2315991     -116655.7       3828.6499     -112827.05    
    992400   2987.5514      3403.2235      149765.79      2.232189      -116696.1       3867.892      -112828.21    
    992500   2969.6548      1877.4707      149729.39      2.2327316     -116674.16      3844.7218     -112829.44    
    992600   2994.867       2339.534       149695.81      2.2332324     -116706.81      3877.3633     -112829.45    
    992700   2978.8429      1607.2934      149666.69      2.233667      -116686.98      3856.6173     -112830.36    
    992800   2977.2208      1621.8298      149642.69      2.2340252     -116684.32      3854.5173     -112829.81    
    992900   2951.182       841.00134      149618.96      2.2343795     -116651.06      3820.8056     -112830.25    
    993000   2986.2398     -2180.6925      149595.48      2.2347302     -116696.77      3866.1939     -112830.58    
    993100   2968.6573      2777.8891      149571.6       2.2350871     -116674.79      3843.4304     -112831.36    
    993200   2975.4113      2038.4828      149550.32      2.235405      -116685.34      3852.1746     -112833.16    
    993300   2929.5483      497.46493      149531.27      2.2356899     -116626.97      3792.7972     -112834.17    
    993400   2952.7938      1564.6644      149512.97      2.2359635     -116656.44      3822.8924     -112833.55    
    993500   2959.0657      416.09289      149497.48      2.2361951     -116665.96      3831.0125     -112834.95    
    993600   2975.7596      1287.5981      149484.07      2.2363958     -116687.82      3852.6255     -112835.2     
    993700   2965.7558      5342.2076      149472.31      2.2365717     -116676.13      3839.6738     -112836.45    
    993800   2955.8372      1895.7953      149463.72      2.2367002     -116662.95      3826.8326     -112836.11    
    993900   2963.4823      5.3370909      149458.49      2.2367785     -116672.71      3836.7305     -112835.98    
    994000   2990.7603      2919.4746      149455.39      2.2368249     -116709.84      3872.0465     -112837.79    
    994100   2957.1813     -1836.4789      149456.11      2.2368141     -116667.82      3828.5728     -112839.24    
    994200   2966.2304      898.03802      149457.73      2.23679       -116679.47      3840.2884     -112839.18    
    994300   2972.0667      3248.9117      149460.98      2.2367412     -116686.07      3847.8445     -112838.23    
    994400   2943.5788      3017.3143      149467.79      2.2366393     -116650.56      3810.962      -112839.6     
    994500   2974.0692      3259.2185      149478.82      2.2364743     -116689.07      3850.437      -112838.64    
    994600   2959.6453      1408.0074      149493.75      2.2362509     -116671.18      3831.7629     -112839.41    
    994700   2969.6476      1252.8742      149511.47      2.2359859     -116684.23      3844.7126     -112839.52    
    994800   2959.6145      2652.4424      149531.98      2.2356792     -116671.99      3831.723      -112840.26    
    994900   2968.1399      75.620405      149555.02      2.2353348     -116684.35      3842.7605     -112841.59    
    995000   2982.3766      2418.6843      149580.21      2.2349584     -116702.21      3861.1924     -112841.02    
    995100   2977.7121      1943.6882      149606.96      2.2345588     -116697.38      3855.1534     -112842.22    
    995200   2954.624       3728.5991      149635.52      2.2341323     -116667.09      3825.2619     -112841.83    
    995300   2942.6307      373.28696      149667.25      2.2336586     -116652.11      3809.7346     -112842.38    
    995400   2959.5866      4297.4731      149699.75      2.2331737     -116674.21      3831.6869     -112842.53    
    995500   2972.4294     -282.5259       149734.56      2.2326545     -116692.52      3848.314      -112844.2     
    995600   2959.7581      1827.4575      149772.22      2.2320931     -116675.99      3831.9089     -112844.08    
    995700   2978.5379      3154.6744      149812.66      2.2314906     -116700.27      3856.2225     -112844.05    
    995800   2934.2045      991.10034      149857.19      2.2308275     -116643.25      3798.8255     -112844.43    
    995900   2957.4156     -1194.0662      149902.86      2.2301478     -116672.43      3828.8761     -112843.55    
    996000   2995.909       3153.4495      149948.6       2.2294675     -116723.11      3878.7123     -112844.4     
    996100   2961.6792     -1220.5723      149996.98      2.2287485     -116679.65      3834.3961     -112845.25    
    996200   2964.3412      1698.3008      150045.08      2.228034      -116682.46      3837.8424     -112844.62    
    996300   2946.5651     -306.46498      150093.7       2.2273123     -116659.9       3814.8283     -112845.07    
    996400   3011.9401     -151.9634       150144.52      2.2265584     -116744.98      3899.4674     -112845.51    
    996500   2954.8271      1483.1765      150196.88      2.2257822     -116670.7       3825.5249     -112845.17    
    996600   2946.7457     -109.62075      150252.95      2.2249516     -116661.3       3815.0621     -112846.24    
    996700   2966.2578      1621.6274      150311.57      2.2240839     -116686.28      3840.3238     -112845.96    
    996800   2955.2864     -1449.7315      150372.4       2.2231842     -116671.84      3826.1194     -112845.72    
    996900   2912.4914     -1414.0077      150433.23      2.2222852     -116615.41      3770.7141     -112844.7     
    997000   2971.9478      2292.8294      150493.45      2.2213959     -116693.5       3847.6905     -112845.81    
    997100   2970.0384     -1079.376       150555.15      2.2204856     -116690.09      3845.2185     -112844.87    
    997200   2969.0812      356.48781      150617.41      2.2195678     -116690.3       3843.9792     -112846.32    
    997300   2985.475       1999.9766      150680.43      2.2186394     -116711.02      3865.2038     -112845.81    
    997400   2949.952       1784.9222      150744.71      2.2176934     -116665.14      3819.2132     -112845.92    
    997500   2935.4713      443.847        150809.04      2.2167473     -116645.07      3800.4654     -112844.61    
    997600   2975.5155     -867.17564      150874.6       2.2157842     -116697.7       3852.3095     -112845.39    
    997700   2943.321       444.35847      150941.25      2.2148057     -116655.28      3810.6283     -112844.65    
    997800   2960.3714      102.40818      151008.78      2.2138153     -116677.73      3832.7029     -112845.03    
    997900   2986.9734     -1176.0953      151076.49      2.212823      -116713.11      3867.1436     -112845.96    
    998000   2938.1837     -821.44975      151143.53      2.2118416     -116648.68      3803.9771     -112844.71    
    998100   2981.9381     -1501.4576      151209.92      2.2108704     -116705.78      3860.6246     -112845.16    
    998200   2954.9046      1327.8568      151274.92      2.2099205     -116670.49      3825.6252     -112844.87    
    998300   2948.6161      1355.0199      151339.65      2.2089752     -116661.77      3817.4837     -112844.28    
    998400   2955.0093      268.45507      151402.77      2.2080544     -116670.02      3825.7607     -112844.26    
    998500   2970.3003     -1769.7002      151463.19      2.2071736     -116689.52      3845.5576     -112843.96    
    998600   2951.0196     -272.44384      151522.84      2.2063047     -116664.35      3820.5954     -112843.75    
    998700   2943.1703     -2488.7404      151580.63      2.2054635     -116654.35      3810.4331     -112843.91    
    998800   2966.4926      2714.0821      151635.89      2.2046598     -116684.78      3840.6279     -112844.15    
    998900   2930.3048     -2661.1847      151690.81      2.2038615     -116636.75      3793.7766     -112842.97    
    999000   2953.117      -2601.1074      151744.11      2.2030874     -116665.13      3823.3108     -112841.82    
    999100   2941.7783     -1172.895       151793.81      2.2023661     -116651.37      3808.631      -112842.74    
    999200   2938.094      -2743.2672      151840.01      2.201696      -116645.37      3803.861      -112841.5     
    999300   2954.7682      1276.7956      151882.34      2.2010824     -116667.38      3825.4486     -112841.93    
    999400   2946.3683     -2997.1067      151922.93      2.2004943     -116655.67      3814.5735     -112841.1     
    999500   2955.4584     -628.27167      151961.71      2.1999327     -116668.15      3826.3422     -112841.81    
    999600   2960.6798      261.53359      151998.93      2.199394      -116674.37      3833.1021     -112841.27    
    999700   2920.4821     -2424.1583      152033.12      2.1988994     -116622.3       3781.0595     -112841.24    
    999800   2973.8759     -1561.3364      152062.29      2.1984776     -116691.94      3850.1867     -112841.75    
    999900   2938.4577     -1699.734       152088.04      2.1981054     -116644.61      3804.3318     -112840.28    
   1000000   2944.589      -733.15192      152109.7       2.1977923     -116652.32      3812.2698     -112840.05    
Loop time of 32968.3 on 16 procs for 1000000 steps with 10017 atoms

Performance: 2.621 ns/day, 9.158 hours/ns, 30.332 timesteps/s, 303.837 katom-step/s
99.5% CPU use with 16 MPI tasks x 1 OpenMP threads

MPI task timing breakdown:
Section |  min time  |  avg time  |  max time  |%varavg| %total
---------------------------------------------------------------
Pair    | 7758.8     | 9483.2     | 11332      |1293.1 | 28.76
Kspace  | 18639      | 19373      | 20139      | 324.2 | 58.76
Neigh   | 840.27     | 980.91     | 1143.4     | 360.8 |  2.98
Comm    | 905.44     | 2851.8     | 4710.8     |2739.6 |  8.65
Output  | 0.47728    | 0.49378    | 0.63389    |   5.2 |  0.00
Modify  | 251.85     | 255.55     | 259.59     |  14.2 |  0.78
Other   |            | 23.33      |            |       |  0.07

Nlocal:        626.062 ave         654 max         601 min
Histogram: 2 1 0 4 2 3 1 1 1 1
Nghost:        8883.12 ave        8955 max        8798 min
Histogram: 1 0 1 3 2 2 3 0 2 2
Neighs:         309009 ave      343180 max      272809 min
Histogram: 2 1 4 1 0 0 1 2 3 2

Total # of neighbors = 4944147
Ave neighs/atom = 493.57562
Neighbor list builds = 100000
Dangerous builds = 100000

# write files
# for writing the final results
write_restart    xx.dat
System init for write_restart ...
EwaldDisp initialization ...
Generated 0 of 3 mixed pair_coeff terms from geometric mixing rule
WARNING: System is not charge neutral, net charge = -2.4 (src/KSPACE/ewald_disp.cpp:223)
  G vector = 0.18750551,   accuracy = 0.0014399645
Generated 0 of 3 mixed pair_coeff terms from geometric mixing rule

# for writing each nsteps steps/track losing
# restart    ${nsteps}  restart_CPS.dat
Total wall time: 9:09:28
