10017
 Atoms. Timestep: 0
1 20.2809 51.2323 17.5639
1 36.3249 32.0474 41.6239
1 9.94849 41.3113 1.83161
1 10.2528 27.876 9.48185
1 7.95046 0.19995 14.5705
1 19.8451 41.8805 33.3627
1 50.8233 35.6896 50.778
1 5.82262 11.1556 44.4872
1 0.98771 30.2985 3.28417
1 27.1713 50.5375 34.3611
1 42.4401 34.6217 3.72296
1 48.6598 19.1588 50.4803
1 43.154 23.3587 47.8723
1 41.9767 18.0613 51.4658
1 20.454 32.4048 15.5434
1 11.6768 20.3947 37.4493
1 7.60568 9.34965 33.779
1 46.1427 25.8733 51.0791
1 24.748 19.4884 17.3119
1 38.5841 14.8769 11.4081
1 48.8248 6.97489 51.9388
1 10.6543 49.5728 3.20206
1 12.0228 13.7119 51.9871
1 41.0259 51.0298 6.53172
1 9.89249 33.1629 5.80654
1 4.69558 13.4657 31.3351
1 1.10427 12.3643 0.2839
1 41.2025 12.1156 11.0395
1 25.3513 35.9283 36.5066
1 30.8336 45.9448 5.74838
1 34.5297 51.7189 19.5913
1 48.6332 41.9084 1.78023
1 44.1416 32.8149 11.6716
1 41.8068 16.0268 39.9546
1 15.3308 46.6414 21.92
1 21.7618 14.8761 3.66342
1 40.9674 16.0698 42.725
1 35.1298 47.6895 5.77278
1 28.8422 1.07992 23.9934
1 45.5335 33.5547 31.4351
1 21.0541 46.04 13.4057
1 42.1737 0.85132 27.8107
1 46.8466 45.4187 43.2798
1 24.4963 12.2349 39.2522
1 42.6754 48.6802 22.8706
1 45.1079 42.6089 17.6952
1 34.7241 6.41485 15.4296
1 6.03825 24.5487 37.297
1 38.4328 43.829 19.9186
1 50.3255 19.8483 20.8318
1 51.8312 47.5435 8.62
1 13.5899 52.7222 36.4167
1 32.0285 19.6739 12.5839
1 46.5795 48.3522 8.56393
1 47.4808 12.9002 14.2463
1 33.5822 8.39345 9.69905
1 25.1973 42.7362 39.2681
1 17.8251 8.40313 5.50317
1 6.01291 43.0839 23.6998
1 21.1072 22.5402 7.28924
1 16.499 43.2905 49.7193
1 42.1262 33.9208 15.0548
1 26.0883 16.4364 21.8912
1 28.2638 0.08547 50.2336
1 51.4344 17.7037 6.8522
1 6.93583 7.35541 24.548
1 9.01196 2.66654 4.11448
1 30.9882 52.5279 44.4831
1 31.5579 7.82594 39.2405
1 37.6283 34.8417 38.7309
1 30.7448 11.5097 39.3815
1 35.4602 41.0452 38.7833
1 2.59292 17.9264 51.4809
1 12.409 12.6174 40.9724
1 6.72948 46.7325 51.028
1 48.3383 12.2751 27.3823
1 20.5021 27.8559 16.6678
1 26.6676 35.619 11.2519
1 37.2078 2.56336 26.1719
1 26.396 19.3601 48.8753
1 16.012 42.469 36.4776
1 46.4391 20.8837 41.4185
1 41.4238 40.4296 33.8737
1 26.2449 23.4395 46.5936
1 2.02661 4.32728 44.8577
1 13.3824 41.2102 47.1406
1 22.9293 17.3327 44.3412
1 41.7157 42.6997 51.0719
1 41.8466 31.4825 11.2351
1 43.6717 25.9943 39.9642
1 41.1942 42.794 35.2768
1 9.39263 38.6373 1.41015
1 32.5868 6.69029 31.0233
1 24.1132 41.0387 30.0032
1 8.84686 28.5083 15.8836
1 27.7359 1.88313 48.4013
1 4.54519 4.07212 45.0592
1 41.8381 15.3154 14.5509
1 51.8805 20.9538 36.257
1 27.6925 36.8286 35.613
1 40.5703 12.0423 30.8533
1 7.31905 24.1751 15.1029
1 45.008 39.7585 44.581
1 39.7512 5.06869 36.8402
1 48.2451 31.2991 17.2595
1 12.3819 20.4078 11.8742
1 12.9925 43.1264 13.3021
1 0.36072 12.5425 7.50544
1 6.08108 41.2697 4.75658
1 25.2731 34.2117 30.1755
1 37.2462 12.4611 0.14325
1 22.8607 0.00613 2.40184
1 33.2784 15.7335 43.907
1 43.5569 22.0805 3.39155
1 13.5836 40.0869 3.7239
1 5.52135 12.5308 16.4463
1 8.39944 40.349 3.6389
1 39.1206 9.78999 39.9128
1 34.3448 39.8022 48.5563
1 14.3545 17.2833 40.9937
1 23.9646 13.8633 36.9649
1 25.8394 20.2905 44.1878
1 42.4795 29.5441 15.965
1 44.7212 21.8648 13.912
1 51.0754 16.1633 45.539
1 39.9983 21.3234 44.0939
1 16.2836 3.65016 33.7669
1 22.4875 23.1687 3.02658
1 34.2474 30.7437 4.93638
1 3.23171 4.85475 16.3036
1 45.6246 40.1736 5.53443
1 30.7358 51.4544 52.6275
1 0.54839 40.1392 49.3703
1 5.63285 50.1425 18.4791
1 22.1028 46.3737 28.6704
1 29.8605 42.5422 22.1493
1 38.3368 8.07757 5.23014
1 26.5279 8.77593 44.2678
1 13.0087 46.4462 37.0012
1 27.8358 12.3333 30.7249
1 10.8906 20.7806 29.0759
1 0.60395 44.7209 6.43361
1 30.9532 4.13414 51.0188
1 6.45884 27.2012 37.8836
1 42.1027 47.5704 36.8324
1 24.538 25.3507 6.37055
1 52.3241 26.8989 49.8499
1 46.869 42.6879 36.1189
1 40.2246 35.3767 39.1492
1 44.3549 1.75367 49.1386
1 38.9986 8.00347 9.80652
1 48.15 11.5774 44.7225
1 6.46787 32.7206 20.4282
1 12.8863 19.888 44.5387
1 20.1166 37.4905 43.5288
1 52.2985 1.21364 38.8875
1 40.3173 51.0219 51.3789
1 11.6536 11.3879 24.4136
1 29.6332 23.6886 42.2807
1 42.1155 7.5243 52.4847
1 50.4636 26.8946 25.9056
1 27.6709 17.2576 39.558
1 30.8718 19.6277 14.957
1 15.8399 38.5333 21.2313
1 9.48644 51.1432 31.6301
1 9.35917 17.1537 12.8148
1 52.6154 43.1896 44.521
1 13.8551 0.30638 35.823
1 44.6038 21.4249 21.7926
1 34.2804 30.6337 40.3814
1 47.8302 30.603 36.1889
1 1.99649 17.7729 12.6069
1 43.5654 31.8264 16.1192
1 42.9331 13.6593 23.5421
1 32.4284 29.7264 23.0783
1 3.06624 7.02726 52.6147
1 18.7268 11.6195 24.2568
1 51.3096 25.8582 9.53983
1 27.4249 5.50833 40.5593
1 27.7505 30.2939 34.1204
1 4.66971 0.44426 2.94432
1 27.1732 10.8182 15.7982
1 33.2054 25.6792 30.7191
1 12.9653 18.87 39.4127
1 19.0719 35.9385 46.0562
1 11.7956 49.3083 27.8736
1 14.8622 6.80394 30.8069
1 40.3438 24.6727 40.785
1 33.2384 25.7616 34.7722
1 47.5697 0.35616 43.4523
1 40.3752 47.3113 32.9067
1 9.80331 21.5603 20.925
1 40.7149 12.6534 17.3407
1 1.7249 10.0779 27.5333
1 14.2236 25.9387 50.6458
1 8.77308 0.25663 10.6016
1 50.7846 33.9912 34.3465
1 16.0967 15.5852 34.2839
1 28.2212 49.3834 32.3151
1 15.3318 19.2946 30.5815
1 30.9247 17.9869 39.0906
1 21.0214 42.1244 49.4488
1 38.7292 4.2564 52.3309
1 51.1533 8.18189 46.049
1 16.7953 40.4412 0.88419
1 51.4225 7.45988 10.0363
1 18.6251 17.0155 13.305
1 1.30675 6.44125 47.7696
1 40.6503 14.4044 44.8202
1 48.4133 20.3629 43.4605
1 9.81053 4.57314 51.7528
1 20.2771 1.5549 17.9851
1 0.80335 44.6728 32.4564
1 49.1292 37.5513 18.0448
1 29.8451 21.8421 37.6398
1 4.31125 31.2084 44.6479
1 16.0291 13.2966 8.17952
1 5.85509 39.7478 2.74064
1 6.71269 8.60559 50.4992
1 0.03834 16.829 50.7402
1 27.7592 38.0037 29.0588
1 11.2461 49.3357 22.4176
1 26.5383 45.921 9.59494
1 36.2269 7.05781 6.4665
1 21.3038 6.71211 20.8798
1 23.9201 38.728 51.7936
1 26.0479 47.495 35.8372
1 48.6185 29.2904 26.3397
1 47.1043 16.2904 0.2993
1 2.39192 47.5146 2.57766
1 3.38602 41.924 20.3752
1 24.4297 48.9925 37.3291
1 18.1518 41.8891 13.2145
1 49.1116 0.0511 50.5418
1 35.2041 25.0972 32.215
1 33.0552 44.8471 51.8603
1 35.5428 25.7642 0.22885
1 34.9111 27.0425 49.0004
1 38.621 28.1281 1.05407
1 52.0205 29.8791 43.6606
1 2.40857 52.6262 24.8211
1 37.5023 4.1222 3.09379
1 35.0121 21.4143 29.3292
1 2.08238 26.6322 36.5991
1 48.5753 25.0285 44.1525
1 29.3861 33.3471 31.3534
1 5.4518 20.0081 50.8672
1 33.8156 43.0414 37.6253
1 36.2713 9.11318 14.3076
1 29.4947 37.9812 37.7841
1 3.60342 28.7073 20.845
1 35.3879 33.1648 5.65424
1 6.10126 2.65459 18.8211
1 3.01285 0.79993 32.2291
1 25.956 37.5286 40.5091
1 39.5808 24.0148 31.5733
1 52.0646 19.6187 4.75687
1 9.27093 21.9501 0.97613
1 48.5817 4.09551 0.49709
1 14.0559 38.2063 31.8808
1 23.4864 46.2853 37.221
1 40.6032 49.9965 37.3364
1 5.61862 9.43985 7.62706
1 48.6237 50.456 30.3477
1 18.0465 47.3825 39.089
1 18.9044 1.59717 42.754
1 25.8066 48.3942 33.2914
1 33.2284 31.1811 17.7898
1 51.7586 2.29073 10.1157
1 26.5653 40.4229 19.8574
1 15.0363 7.40694 46.8117
1 48.7193 41.002 10.0191
1 10.2706 42.5545 4.08741
1 43.3347 28.6106 6.73604
1 49.2101 8.2178 31.4241
1 5.33023 1.33052 14.8652
1 3.89558 17.4779 21.9074
1 47.7424 17.2874 20.7402
1 37.5602 6.78567 27.2362
1 41.8386 25.4945 48.1233
1 42.7507 44.4901 28.8295
1 10.9817 3.68426 17.3111
1 17.084 10.8064 10.4644
1 9.60399 39.2772 10.8179
1 33.5625 0.57563 50.5288
1 17.4911 14.7189 14.2805
1 35.4049 13.3956 22.6961
1 28.5942 31.5739 16.0069
1 38.0936 38.4569 18.6225
1 40.2758 1.86011 2.40927
1 5.99271 46.9685 3.89123
1 8.39743 15.273 19.0831
1 30.5833 45.4106 47.8112
1 46.3389 7.88049 23.2919
1 48.3118 47.7966 48.5973
1 6.62716 20.8656 38.4928
1 11.0065 37.3937 23.985
1 9.11942 26.3012 49.0845
1 4.11243 17.9095 35.7456
1 13.7523 6.71776 26.4851
1 42.4591 34.027 49.4409
1 41.6981 18.2774 30.6314
1 18.1547 10.921 19.8058
1 12.5202 17.657 37.1638
1 52.6052 5.72318 37.5266
1 29.3062 18.4283 8.16138
1 36.3456 36.1244 49.5187
1 47.1448 11.8986 18.4259
1 51.8622 5.82546 5.02847
1 22.5934 36.165 22.2498
1 32.973 27.9627 50.5632
1 1.18933 1.39791 12.9519
1 48.9303 46.5815 27.9058
1 31.4511 26.1991 39.5167
1 21.6695 48.7659 36.4331
1 1.60218 5.61689 32.2369
1 17.0622 26.6163 5.24638
1 9.52797 8.59406 50.3359
1 33.4993 46.1198 10.0527
1 36.7891 51.8565 48.2063
1 2.68431 52.1392 43.5799
1 17.0267 9.68809 36.5251
1 17.3504 36.4234 8.5221
1 10.2794 10.6504 16.7169
1 10.6463 46.5314 2.43153
1 37.925 41.9494 39.6666
1 27.645 51.7274 31.282
1 24.8454 0.96093 40.4534
1 2.01247 30.2342 44.3641
1 11.7336 47.092 14.8957
1 42.8453 13.4648 19.4146
1 0.37498 40.896 3.48176
1 48.6662 10.9243 12.6821
1 13.9142 27.0868 15.154
1 17.3079 34.7259 10.6019
1 33.2096 45.9209 5.04358
1 11.0868 29.0995 3.88071
1 50.9444 50.7764 20.776
1 15.32 35.8763 12.418
1 21.5817 5.35093 3.51775
1 35.2838 41.5817 50.1405
1 36.2274 7.68593 3.79287
1 29.9928 48.4914 52.1854
1 35.2452 34.2758 37.4349
1 1.44345 42.8547 52.3982
1 8.83776 50.4474 40.6985
1 44.208 6.03182 51.0301
1 47.391 44.1407 23.7625
1 27.8536 19.9886 6.54786
1 38.4206 38.0298 22.7799
1 29.7863 35.5792 37.1304
1 36.6711 11.0325 51.2638
1 42.2145 21.9268 49.9536
1 19.1114 6.46049 18.6304
1 13.6978 42.63 35.3611
1 7.87072 36.616 2.50703
1 39.3878 28.9296 5.15451
1 1.74328 8.70664 25.2856
1 4.97781 31.4234 28.732
1 2.48448 40.2329 39.948
1 35.7291 50.3124 9.33089
1 37.8011 35.035 15.8561
1 48.8033 6.90034 47.5679
1 32.1843 26.4623 37.0318
1 19.4674 13.8843 43.2982
1 13.8006 15.7819 11.4701
1 41.1959 9.8284 37.5686
1 39.9634 9.86028 11.2738
1 20.5283 20.1234 25.9843
1 39.0745 1.18419 33.7448
1 6.98267 0.97698 36.4988
1 20.5824 52.5659 10.9588
1 8.39016 42.021 36.1512
1 46.6377 12.5328 49.9381
1 49.1912 45.2019 48.7832
1 9.90089 15.0777 51.2148
1 46.1679 35.7413 36.6318
1 22.2672 41.7364 37.4588
1 2.70922 37.2558 45.8464
1 50.0868 29.4633 4.45064
1 14.4818 11.6424 48.6693
1 18.5163 21.0416 8.25341
1 42.447 38.3091 52.3512
1 6.19795 38.791 24.3444
1 50.7651 23.4751 51.8646
1 39.1617 33.2743 17.4906
1 35.6154 12.6168 17.5459
1 0.64027 31.4177 38.0311
1 51.9028 36.0631 35.4628
1 37.1827 42.9819 10.1279
1 45.3702 18.4017 1.54189
1 9.14692 29.9691 18.1184
1 46.2249 38.2976 37.6104
1 32.3523 11.0141 51.2485
1 24.013 2.33416 49.7215
1 0.28291 22.8989 24.5816
1 30.9958 2.383 43.1389
1 33.9246 43.0752 34.0791
1 28.2916 15.861 11.8697
1 30.4448 28.6413 28.3425
1 24.2646 26.9954 49.0647
1 25.7785 26.1226 27.7607
1 8.64667 28.8565 2.31944
1 8.19671 34.8287 12.2131
1 16.757 45.5041 48.3855
1 20.2655 8.57028 11.4906
1 47.8014 36.2027 38.6218
1 30.1073 17.5001 31.9908
1 45.5503 37.6265 26.7296
1 43.962 24.0043 50.2957
1 18.2276 35.1549 12.9502
1 23.5965 38.3225 20.7027
1 12.9732 14.9871 43.7098
1 27.7044 41.2788 7.04421
1 21.0791 19.0179 43.6864
1 30.6988 15.4789 38.1082
1 43.8192 38.3745 6.30277
1 48.745 41.7254 14.9481
1 26.8247 22.6512 10.2014
1 51.0926 35.8141 5.62875
1 46.3398 16.974 46.9519
1 33.0118 1.23106 23.3011
1 36.1915 4.67515 52.2089
1 48.9611 37.3858 50.0119
1 42.3762 6.98975 28.8247
1 29.8337 36.9896 21.4946
1 11.2875 11.9339 29.8071
1 20.2244 17.9986 6.12509
1 45.5112 35.453 25.2655
1 13.769 51.3638 50.3944
1 2.21104 3.33963 48.9466
1 21.3402 13.9612 6.29074
1 20.1425 50.301 47.3449
1 45.3992 27.6558 32.3781
1 43.7676 1.87341 16.6941
1 5.21979 10.1361 49.048
1 30.5024 11.158 18.7846
1 41.691 52.0294 30.3224
1 13.1453 40.76 30.6376
1 32.9931 26.1411 23.8223
1 2.68409 32.034 35.6044
1 6.48813 16.2264 25.6224
1 40.3681 43.6002 39.1779
1 37.2966 27.2888 10.9917
1 2.34075 24.4672 10.1676
1 32.694 27.5796 8.24511
1 29.2156 3.5191 6.27032
1 17.2424 41.8201 10.7876
1 17.0366 3.20159 25.0107
1 26.4585 8.84818 50.5172
1 38.8091 39.992 12.6674
1 44.8454 38.0785 51.3387
1 24.5961 51.307 12.8414
1 18.6019 4.27011 23.3019
1 4.16781 29.0786 25.2394
1 49.1525 32.0237 26.18
1 37.3984 20.881 44.1751
1 3.39686 22.3388 11.5491
1 12.1259 7.34279 21.1981
1 34.354 9.54128 51.5924
1 27.5633 42.7695 16.7137
1 17.8867 23.1863 21.1275
1 30.918 35.252 0.54498
1 49.8659 28.0301 8.61055
1 31.1104 31.2314 2.45535
1 12.9637 7.4878 15.3875
1 9.64497 29.6594 37.3131
1 27.8817 10.6603 25.6776
1 30.8707 32.2969 17.1624
1 7.18341 14.1585 4.2741
1 22.7902 24.531 31.6263
1 3.40601 20.8012 43.6453
1 0.97427 41.7358 41.5891
1 36.0354 8.28352 16.7804
1 29.5588 36.3003 28.1595
1 0.9596 16.924 9.88602
1 4.63605 39.2869 33.6436
1 39.2319 35.7677 23.9105
1 39.6296 37.7514 16.6603
1 15.1429 37.3823 6.98966
1 50.5309 5.22788 14.1731
1 0.48572 36.5976 50.7067
1 30.3541 24.3057 49.4213
1 16.3007 34.9038 14.6662
1 16.7528 49.7702 10.034
1 33.3008 51.1766 44.3254
1 18.295 14.0908 6.83394
1 1.41065 33.6914 38.6742
1 11.3315 5.82023 44.7003
1 14.6049 8.87381 48.9493
1 43.4488 17.8896 46.8468
1 47.7301 37.0241 28.8509
1 36.7768 21.794 25.2678
1 15.0057 21.4507 41.7311
1 18.4118 33.5698 47.2801
1 49.3034 1.80699 5.97241
1 31.4304 48.1298 23.3148
1 12.4886 36.4622 45.1517
1 46.8189 3.66655 33.2877
1 32.2517 0.73499 0.12422
1 37.9911 49.4971 20.4925
1 38.8492 37.1405 14.1936
1 38.0975 36.9749 40.3363
1 1.5025 14.8929 27.0965
1 11.2286 18.6155 4.86705
1 30.4181 29.6163 21.6098
1 47.387 22.8311 3.36756
1 3.61282 31.941 26.513
1 43.4016 36.4322 27.9095
1 17.3852 37.7957 45.3086
1 45.6319 28.9309 2.29368
1 37.1057 4.26623 47.2156
1 43.7391 40.2822 42.2806
1 48.8497 5.11307 34.2219
1 39.2736 6.65562 0.59791
1 27.4111 0.48098 8.84131
1 4.02599 44.5905 35.8667
1 5.69673 17.1705 37.5448
1 50.4842 21.5145 15.3387
1 39.3527 42.2455 11.6206
1 0.91629 41.241 44.1168
1 39.6853 0.68807 44.3271
1 47.931 3.1935 23.4754
1 15.5746 9.17246 38.6505
1 44.3322 44.797 42.7262
1 3.98235 5.62445 39.889
1 40.746 38.9762 14.555
1 15.3595 8.64296 0.12017
1 10.6821 42.941 39.7293
1 46.4057 26.7562 34.6147
1 19.2278 1.60694 6.95614
1 33.3543 38.1892 46.4288
1 31.6637 50.233 5.35125
1 16.225 35.8484 3.44496
1 38.2777 40.7977 31.1978
1 32.9273 48.0732 12.1832
1 18.7238 46.4504 11.9346
1 48.1998 6.06144 42.391
1 39.8617 16.717 9.95035
1 47.9699 21.9196 33.2966
1 1.27186 2.95888 35.9613
1 35.7465 39.2651 1.11331
1 0.59457 2.4963 43.6053
1 1.4892 39.1752 5.24155
1 51.2826 8.48088 32.9068
1 17.8311 2.7268 8.91156
1 32.3555 5.59941 0.73747
1 28.9081 5.4701 4.46029
1 35.9252 34.2834 29.251
1 38.2695 36.8278 33.7545
1 15.0947 39.9395 6.23831
1 18.9303 29.3243 18.0568
1 42.6596 29.8016 43.9889
1 52.2115 13.6411 52.6183
1 31.5486 28.9603 1.42106
1 35.2909 24.2938 2.61761
1 22.9004 47.0083 44.8554
1 45.2672 40.1173 39.8337
1 26.3926 26.5232 50.5707
1 11.7609 47.7563 17.3907
1 2.05688 7.23999 16.4246
1 1.21532 7.13167 2.98537
1 39.4914 23.9783 28.9557
1 45.8207 46.0517 9.53077
1 25.5854 8.56179 9.82522
1 5.1324 17.5521 12.8642
1 26.3498 29.2943 36.0134
1 4.46661 30.1525 40.2752
1 5.64916 32.2124 7.61112
1 3.65251 4.57184 30.8482
1 31.3023 49.8372 11.1553
1 40.4047 8.70935 21.7051
1 50.3455 43.192 10.8087
1 35.0154 48.5599 27.2464
1 35.6187 49.4613 18.7465
1 34.2973 8.42413 46.8965
1 4.6789 13.2226 10.5508
1 45.0262 19.1326 42.6702
1 29.4509 30.8138 43.1002
1 51.0288 14.0685 17.3916
1 22.5783 25.5958 39.5368
1 30.9149 31.0466 29.7561
1 11.7346 33.9286 45.6009
1 46.1238 19.7622 9.20958
1 12.3819 50.4546 36.9084
1 5.27472 30.6208 31.4228
1 28.2486 42.7728 26.2313
1 7.43075 41.7838 43.2615
1 10.5455 25.0369 18.4605
1 26.7723 2.32076 50.8131
1 33.361 30.3613 30.5856
1 51.1878 3.90751 38.9836
1 51.994 50.7542 49.4212
1 36.182 46.171 26.0089
1 15.1175 47.368 35.6391
1 10.318 32.2038 39.1765
1 47.5437 27.6267 1.13114
1 17.6393 0.70495 26.2944
1 44.2731 17.2651 8.95797
1 14.8607 28.3591 41.0004
1 51.279 11.7756 1.486
1 42.9663 4.96274 7.86434
1 34.426 4.68206 47.4481
1 20.39 5.2319 16.662
1 46.9793 49.5314 34.4048
1 30.0433 48.2172 6.83368
1 32.9248 39.1195 22.6192
1 47.1288 14.4517 29.9977
1 50.1382 9.51561 36.3181
1 31.616 44.2663 33.5235
1 43.2862 12.2356 17.1061
1 8.94901 16.3093 5.25677
1 43.9277 4.70745 1.19467
1 40.839 37.9154 49.8927
1 47.5247 2.81503 19.9035
1 2.06666 49.4049 36.629
1 30.9616 38.4182 9.92389
1 17.4914 20.7617 41.1346
1 45.8167 44.55 34.4878
1 30.7718 24.2909 37.5021
1 50.2915 28.3769 22.9659
1 48.8938 27.3097 3.47085
1 44.6377 27.8096 36.0901
1 25.4668 17.6298 19.5975
1 14.3658 46.3328 1.54049
1 47.1148 7.70659 28.374
1 42.0893 12.816 51.3586
1 38.6913 43.8886 41.401
1 16.5633 18.1136 25.7908
1 36.3687 36.2696 22.3995
1 27.6366 52.2868 1.75496
1 15.2538 29.4498 15.4333
1 46.6135 46.6328 26.5114
1 10.8536 8.1746 16.8421
1 20.7313 24.3445 33.952
1 12.2325 14.6728 3.18859
1 12.9984 29.2943 30.7481
1 27.4827 28.3529 28.4134
1 23.0953 5.66203 16.9256
1 20.0822 16.8641 29.0734
1 32.3929 52.1186 11.4581
1 11.2254 52.0086 2.14002
1 6.58292 50.9965 1.41994
1 12.2147 6.17789 17.7893
1 0.85911 51.5119 8.81323
1 18.3761 30.0246 7.39722
1 24.8984 24.6478 15.9916
1 43.0208 26.3789 37.5523
1 35.8503 51.1332 30.9071
1 26.2468 8.78453 14.2541
1 30.9163 36.3496 39.5457
1 43.2006 2.54933 37.7017
1 23.038 44.1012 38.6666
1 22.7084 36.4516 52.293
1 33.2932 42.5272 40.1734
1 14.0221 22.2414 44.1012
1 25.1044 39.5221 49.5911
1 13.6721 50.7604 39.164
1 11.3959 49.6159 10.8533
1 19.9325 32.8791 26.4515
1 27.4276 12.6994 11.7586
1 32.7044 36.9148 31.3008
1 23.0609 37.2562 16.2422
1 1.06975 45.8176 1.10728
1 12.1215 12.6624 48.4963
1 9.79779 35.5701 17.1799
1 36.7551 49.5242 7.08251
1 29.0325 13.9291 0.79737
1 41.0723 40.1058 28.8034
1 33.6876 40.0506 40.6433
1 37.4425 6.81881 15.3522
1 18.5667 30.4912 31.4082
1 20.0002 42.2748 46.9462
1 3.29228 49.4023 14.1293
1 42.8637 27.0531 11.1291
1 16.7271 17.9258 8.49613
1 49.7696 39.873 50.9474
1 30.0873 42.0112 33.6868
1 42.6153 21.7425 44.4262
1 5.85344 50.5329 14.9143
1 19.866 15.3581 15.3256
1 5.16684 16.6822 6.68405
1 25.9478 24.6887 44.1199
1 26.7645 3.87324 23.4951
1 51.1019 31.0667 41.4102
1 28.4285 46.1061 38.6521
1 27.0757 38.5802 0.14876
1 0.71303 29.1165 51.8476
1 28.5927 7.56623 33.2853
1 16.9999 6.03993 22.2083
1 43.1842 41.8423 32.5877
1 2.12508 36.9392 43.2801
1 40.2213 35.4955 49.1293
1 3.70089 8.43552 27.1847
1 45.0919 44.7665 25.0251
1 5.34032 22.2623 3.63207
1 37.3096 22.2522 39.3946
1 9.03299 11.0156 8.96889
1 1.77726 16.7035 18.241
1 32.6789 19.7355 27.803
1 23.8426 33.6848 52.3387
1 30.1511 12.406 29.285
1 40.2396 0.51883 47.7593
1 8.61153 11.101 11.585
1 29.0036 44.3638 33.1431
1 49.8498 35.5299 28.7292
1 33.3604 40.5822 43.7035
1 36.3783 10.1786 32.3203
1 52.7296 24.5318 50.6536
1 7.48182 25.3975 26.0348
1 45.5076 51.1861 35.916
1 9.55009 17.1777 9.75874
1 42.0672 14.9141 0.78851
1 9.28977 16.6665 0.45228
1 36.5806 45.6246 9.69348
1 46.9704 35.5569 43.7578
1 45.3793 48.3258 40.16
1 42.7091 26.7624 22.7653
1 10.1226 37.1744 40.7235
1 23.2525 23.7665 17.9012
1 17.4815 10.4616 49.0504
1 3.39913 22.3306 20.5478
1 12.7795 41.3202 5.86245
1 45.3459 23.6795 41.6152
1 21.659 0.86719 24.544
1 10.7441 24.2455 48.1068
1 16.3351 6.92815 39.6905
1 24.1861 2.66491 38.4301
1 8.42667 21.342 29.8983
1 32.1635 13.8675 39.355
1 13.5532 22.7599 0.83306
1 50.2404 22.0572 31.9656
1 25.407 20.7507 27.6475
1 23.5199 36.3648 29.8181
1 27.031 29.8242 43.2264
1 30.3754 6.46346 16.2708
1 30.5594 0.43602 13.1427
1 6.32566 50.0124 39.1707
1 28.817 29.3706 26.2142
1 42.5164 22.2596 20.3214
1 21.7439 37.9553 5.77961
1 6.08868 26.9977 8.59417
1 50.5715 4.4524 28.9702
1 40.7308 10.2914 16.1669
1 42.3721 29.036 26.137
1 41.7753 17.8171 20.5823
1 51.2925 24.5282 45.0093
1 51.6299 38.0973 17.7601
1 46.2248 26.6142 23.6676
1 19.8772 11.8221 6.38954
1 43.2614 51.2048 34.1023
1 28.1538 10.1955 18.2243
1 39.9401 26.5093 10.4901
1 37.7702 44.0514 22.4569
1 42.9319 20.1384 4.92677
1 20.8864 10.6433 25.4862
1 16.5139 19.8878 35.9135
1 10.6811 46.2776 45.7338
1 29.339 33.4061 1.81973
1 21.0452 4.33908 26.9965
1 30.914 44.328 2.00868
1 24.0767 38.2869 10.0533
1 30.2079 6.55264 50.074
1 5.68257 30.6477 47.0564
1 6.39886 14.8824 0.13905
1 32.0242 6.98833 26.5254
1 14.2467 49.3017 45.8907
1 44.1895 8.98338 52.0646
1 30.3528 5.48539 2.36476
1 40.4301 44.3951 24.8106
1 38.8299 10.1165 31.115
1 33.4325 50.4937 17.3473
1 21.7322 14.3026 22.5709
1 24.897 6.0176 8.92136
1 39.9047 5.08885 46.1014
1 6.9402 28.5597 31.6085
1 21.9369 51.8081 44.5756
1 46.3565 7.60636 52.2892
1 37.9087 51.6107 16.3315
1 21.9932 43.3415 29.8949
1 14.2243 19.799 37.2495
1 9.63299 48.7596 50.2149
1 40.3339 17.1668 1.42901
1 7.52017 16.866 47.3211
1 20.1852 44.9106 46.9463
1 10.0545 13.6167 44.3515
1 13.2076 51.8421 19.3551
1 45.0005 25.7122 48.6638
1 46.219 51.7797 29.5929
1 24.7137 13.6449 25.0307
1 6.0767 46.0752 48.4543
1 40.4772 15.6668 27.1053
1 49.1954 19.2573 29.9158
1 8.481 23.5846 19.6096
1 50.9674 40.6433 43.4824
1 1.41127 31.2878 12.5988
1 42.2486 5.45545 26.4977
1 1.44878 5.17581 20.1125
1 1.91688 32.4749 48.1328
1 17.5632 37.9514 42.6269
1 18.0246 24.6317 34.6106
1 7.34556 49.2668 51.5362
1 14.6166 15.3681 2.304
1 4.72754 14.4698 24.4953
1 25.4245 52.6266 22.1847
1 7.26771 33.6551 9.78529
1 4.11047 24.3117 22.2584
1 2.17601 9.83996 3.75971
1 14.2903 6.14909 0.58107
1 33.4447 28.5548 45.318
1 38.5748 9.46596 37.3588
1 11.7663 17.4784 8.25469
1 23.6886 19.2192 31.1992
1 46.499 16.8008 5.26603
1 17.6965 19.3016 15.2147
1 20.6709 17.7534 33.557
1 1.47929 34.3234 28.8113
1 33.5401 39.6462 2.70151
1 7.83102 10.6252 38.6148
1 44.5324 6.41234 9.44213
1 11.2682 1.10218 17.5539
1 32.6976 21.0808 46.9513
1 23.3779 3.54147 47.4294
1 21.912 43.4226 12.8048
1 47.487 3.41662 7.03033
1 13.19 19.8226 9.41092
1 1.19592 30.7382 8.29555
1 40.7326 35.6561 10.83
1 35.0678 3.27733 32.8099
1 6.71671 9.67029 5.23337
1 40.579 42.1342 31.4226
1 51.9807 22.7486 34.3459
1 0.05109 41.5065 17.8721
1 47.9607 18.675 48.0142
1 50.4285 15.7404 13.1691
1 4.10676 42.5578 15.4832
1 21.7212 34.8639 26.5318
1 38.2621 41.1288 19.0469
1 43.2452 35.0416 10.454
1 22.7987 17.2878 36.7803
1 28.7192 40.2798 41.0744
1 18.9083 44.4994 17.0348
1 34.4522 12.3385 50.8171
1 18.1651 37.385 20.7388
1 50.8177 52.6413 27.0555
1 52.0574 52.3358 9.19487
1 7.96163 28.6743 51.4179
1 49.5896 49.6108 28.0356
1 1.02711 14.945 39.2024
1 51.2365 37.1041 12.5653
1 5.66571 17.7945 20.1403
1 0.34117 16.313 23.7684
1 3.82275 49.9976 22.9729
1 24.6078 43.9244 46.4691
1 11.0279 34.4436 32.8262
1 31.7768 38.4202 48.9104
1 10.6515 18.4206 27.9418
1 25.6277 46.0412 47.5346
1 5.23029 45.1232 11.4586
1 42.8985 9.74681 27.8978
1 30.2036 9.68113 33.6977
1 45.0125 35.4425 41.8909
1 42.9285 38.5928 13.1205
1 29.9716 5.46603 34.705
1 38.8413 29.9446 23.4969
1 19.0578 23.2821 44.3947
1 30.9092 19.4555 42.7555
1 52.3542 35.0125 22.3408
1 12.7197 26.2108 17.5448
1 48.5744 31.7376 10.5585
1 20.385 31.1729 33.2157
1 49.2495 41.8554 5.83818
1 5.97143 20.559 45.0492
1 29.4537 29.4566 6.24919
1 17.4216 48.9587 28.8473
1 29.5217 26.7003 37.5811
1 51.0932 10.7767 13.813
1 35.2093 8.29299 23.0491
1 25.6232 1.31466 30.6459
1 5.74568 28.3294 3.87142
1 40.9129 25.5056 33.8282
1 43.0999 26.6001 32.8119
1 14.9523 14.3952 13.4004
1 1.8886 40.0991 19.1504
1 28.8209 16.0247 45.3128
1 29.0934 45.9973 9.35009
1 43.4264 44.5052 51.9064
1 9.37787 13.6426 5.88443
1 42.5195 17.5031 44.3127
1 40.1452 39.9791 10.3517
1 1.96176 21.9186 18.1998
1 3.46597 40.6142 49.4733
1 4.40207 22.5497 18.0219
1 50.3627 36.1544 23.6426
1 0.27021 45.8018 15.8777
1 11.8306 45.7518 6.63411
1 1.22192 29.5919 0.40824
1 33.0134 10.991 43.6573
1 46.5079 4.81773 2.03911
1 41.6194 51.2511 11.7172
1 30.9051 18.6985 10.3408
1 4.74742 25.502 33.801
1 10.816 30.2694 15.7559
1 52.3889 10.5324 20.9149
1 6.52 51.516 35.3195
1 17.5453 41.237 50.9524
1 7.20419 46.355 13.0166
1 37.7539 3.42214 32.4221
1 2.0995 52.3966 52.1853
1 32.5993 47.685 7.07714
1 19.8212 5.75485 35.2522
1 3.57052 13.9729 15.5398
1 49.6127 23.8043 9.52917
1 16.065 1.25442 21.1819
1 21.1315 5.0771 6.16727
1 13.3748 43.8926 40.3812
1 21.991 28.8245 28.8652
1 14.1646 45.9586 31.901
1 49.8815 6.02128 45.1739
1 22.6225 28.8551 5.57229
1 16.672 30.6858 36.7736
1 28.2555 33.9157 17.3027
1 20.6643 46.3229 16.2125
1 13.5896 10.6935 28.6497
1 50.5833 45.2324 4.80317
1 42.4287 20.3896 29.1127
1 35.651 51.9052 6.62252
1 22.0633 51.4834 41.1386
1 19.8984 26.6436 34.7497
1 43.6457 10.7091 15.0391
1 48.9583 45.1033 11.9816
1 15.1792 51.1025 1.47619
1 13.5999 27.6975 21.9748
1 52.7373 31.7993 50.5917
1 7.70856 6.90941 42.3195
1 26.3151 42.1572 27.8856
1 28.2017 0.40356 11.4194
1 4.29192 19.1774 38.1894
1 3.29382 8.51511 43.6659
1 20.8403 39.1671 32.4983
1 6.63399 47.4373 38.4777
1 48.0281 5.94965 13.769
1 6.67091 35.5454 14.7508
1 18.4061 39.9408 32.4409
1 46.5952 6.78166 11.1146
1 12.6906 7.97997 4.80218
1 26.8516 12.4393 18.4744
1 4.14989 35.7863 4.51063
1 5.66508 44.7679 32.6174
1 34.1407 3.62608 37.3633
1 46.5016 15.839 18.7143
1 0.24194 27.3243 48.1587
1 5.79847 3.71405 22.508
1 37.8645 23.5225 8.16361
1 15.2105 40.145 19.2007
1 7.70946 40.5592 45.8484
1 36.4227 27.4533 44.1041
1 26.5186 45.511 14.29
1 16.3359 39.8376 12.5332
1 12.7395 21.8264 20.4894
1 12.2424 37.7463 3.37788
1 17.4909 14.9331 22.658
1 51.8412 2.04944 48.8255
1 13.5645 32.6495 8.55392
1 7.83843 2.47172 23.6982
1 10.464 5.46734 21.9736
1 17.4656 50.7183 48.892
1 48.3322 51.5887 32.6568
1 21.7843 37.2128 3.28792
1 8.11862 42.7628 5.40274
1 30.418 51.8274 9.50944
1 5.43725 10.2443 23.4881
1 52.4901 19.1849 49.7767
1 51.8386 1.99091 32.9628
1 32.2792 13.6654 50.4487
1 32.4891 21.6082 25.8292
1 0.54685 51.6633 35.5602
1 48.8817 38.6906 37.8747
1 30.8944 22.8109 46.2368
1 52.6493 8.81962 30.8652
1 41.497 22.6834 30.4904
1 19.9344 44.8979 29.2447
1 35.0861 43.1547 13.5183
1 3.57852 26.3795 51.7991
1 42.769 37.8721 42.471
1 46.4723 45.7419 21.5123
1 11.0467 19.6918 41.0155
1 42.8141 44.0543 31.3885
1 38.239 13.2559 50.508
1 16.4614 9.90614 7.29116
1 16.5349 48.3177 45.0184
1 13.527 36.2353 42.3034
1 43.5528 46.4398 40.8224
1 38.2841 6.95243 46.2843
1 23.907 12.5996 22.8335
1 30.3859 16.3803 25.0952
1 30.8981 31.0314 7.71354
1 8.65782 2.35857 1.62665
1 8.17402 15.7797 36.5411
1 21.4663 47.8611 33.1959
1 29.0276 21.3695 41.3378
1 5.86969 6.3541 22.3899
1 13.4472 0.25461 33.2171
1 37.0982 31.7241 46.7639
1 4.16688 4.60595 13.9306
1 4.14488 9.19697 32.174
1 25.5641 43.9051 25.974
1 0.15381 51.3888 30.8973
1 10.1044 35.7257 37.2142
1 2.46764 34.8402 35.3002
1 17.4759 39.0215 47.5973
1 48.106 10.7317 40.5915
1 13.8441 28.2217 33.0404
1 39.4791 26.6279 17.4763
1 2.74649 51.5574 3.35364
1 9.72792 24.429 1.98182
1 15.8117 34.5603 35.9113
1 19.687 23.8968 36.4589
1 34.9627 24.9665 18.7246
1 7.10476 30.0817 23.5324
1 28.6557 11.7956 8.6494
1 50.0395 23.4017 17.4187
1 50.5777 37.778 52.3372
1 20.6511 25.2725 6.5362
1 22.3734 41.2638 31.9174
1 39.1677 3.92813 34.5745
1 20.8113 32.9113 46.2137
1 25.9994 30.6791 28.4078
1 21.0923 2.56356 31.8035
1 32.4076 12.7578 6.56008
1 8.07274 31.3438 38.5396
1 18.3642 35.0702 22.335
1 33.1405 51.5771 22.0402
1 21.2479 29.1978 31.588
1 10.5821 23.9924 4.34608
1 21.6909 10.3173 35.6984
1 48.0002 18.6958 1.08793
1 24.3374 38.5635 0.95705
1 18.7109 37.9208 34.6975
1 44.4083 38.7589 8.93434
1 19.4492 40.1819 37.6172
1 12.0971 49.3978 49.8734
1 38.4466 1.10178 4.18789
1 25.8934 45.6286 42.1742
1 35.8056 31.3452 36.8403
1 26.9776 3.66203 4.5207
1 46.9772 15.503 22.7523
1 35.4734 25.8563 6.78267
1 20.1175 40.5566 51.2845
1 13.1552 21.9871 49.3746
1 47.6488 41.3658 40.3072
1 22.5131 16.9121 41.6599
1 25.4078 43.0255 20.356
1 49.7584 26.6732 40.4021
1 8.78971 41.8949 15.5783
1 22.1384 10.4148 3.04483
1 14.0081 41.5147 23.7835
1 1.84089 49.9621 1.36251
1 9.81846 2.7424 33.3926
1 45.2868 28.1325 10.5366
1 9.2925 19.0718 23.049
1 8.50284 36.5819 23.3524
1 2.20446 45.6915 24.2441
1 29.9494 3.18756 36.1167
1 41.5609 1.06508 15.7608
1 12.7155 9.10701 34.4316
1 36.9497 20.4179 5.55466
1 17.065 27.1608 50.034
1 34.7839 19.524 6.73281
1 50.4766 50.1443 8.20914
1 14.3139 35.0089 7.88065
1 28.6293 47.84 17.6706
1 29.7267 20.5781 0.10448
1 35.1855 5.01802 49.8096
1 44.8785 26.3795 1.48512
1 46.636 17.014 12.3756
1 0.31025 12.811 30.9634
1 35.7802 14.9763 44.4991
1 29.8936 1.70971 8.16295
1 31.4404 4.29234 20.2569
1 33.0038 41.8422 27.2798
1 16.5645 18.8031 52.1368
1 12.9477 28.9151 16.7477
1 40.9817 10.1774 32.7146
1 45.1784 12.6487 38.2503
1 30.6697 31.2103 26.994
1 38.4073 6.32386 7.91365
1 48.7763 24.7074 26.6612
1 27.2237 43.6741 24.0047
1 47.5018 23.565 37.4991
1 45.4361 42.4344 43.6553
1 31.2638 18.2156 0.44216
1 40.628 34.8135 21.8898
1 31.129 46.9744 44.8058
1 27.0547 38.9754 24.5943
1 10.8234 44.4849 25.2635
1 21.416 6.50443 37.4459
1 16.2396 10.6667 24.8354
1 39.766 40.4305 6.04484
1 17.9457 33.0979 35.5697
1 40.8045 20.7265 34.6309
1 45.1085 31.0541 13.5864
1 2.37407 12.2458 9.589
1 37.4156 27.7623 28.0221
1 28.6885 45.8747 41.3841
1 52.516 20.242 14.1252
1 26.7131 29.8723 6.95396
1 8.20175 6.75359 51.4774
1 19.4952 21.0531 42.9702
1 19.0073 20.4242 4.03146
1 27.0673 13.7362 9.49164
1 0.33937 24.3623 18.2184
1 52.1472 42.1629 39.3172
1 41.8928 33.4327 17.6637
1 29.5186 13.761 10.2682
1 21.0078 26.635 32.3613
1 14.6493 45.94 6.36518
1 3.18954 19.2204 2.59645
1 14.3097 30.4204 18.9816
1 39.1121 11.0582 46.6647
1 38.5708 13.724 7.13907
1 13.7194 30.7217 6.72268
1 7.61918 19.34 31.8576
1 5.46716 16.0786 45.0467
1 38.3164 29.8803 7.3134
1 46.1409 15.3657 10.3503
1 52.6759 20.5632 38.6168
1 40.4253 32.9307 3.8633
1 45.788 47.8421 51.3519
1 47.8214 49.288 39.409
1 51.1074 13.1625 5.88639
1 24.2812 33.6934 18.8218
1 11.3081 7.36957 10.4834
1 19.1202 9.42671 7.48308
1 31.0272 26.1056 42.4274
1 25.6113 5.4034 25.2366
1 26.6381 14.1396 20.4634
1 45.5273 29.4384 25.1638
1 37.8816 41.7097 7.32996
1 35.0058 4.66134 35.2164
1 13.2691 29.8888 39.4314
1 36.8337 27.9701 25.4768
1 21.5389 6.88078 27.421
1 15.6889 17.1735 29.0722
1 15.5378 32.4354 24.9021
1 15.6207 49.1375 22.199
1 26.2086 20.1094 10.7262
1 43.9683 27.2897 4.40058
1 44.592 35.572 33.2742
1 23.2409 28.7735 14.455
1 0.31419 14.8767 19.3853
1 48.8212 3.94709 43.8927
1 41.7604 46.2544 26.3987
1 0.24352 29.2561 30.565
1 47.7581 22.3558 26.0882
1 39.9479 42.1858 8.95743
1 5.75434 12.6035 2.27399
1 8.64615 33.7659 27.1849
1 18.0395 42.0057 40.0203
1 34.0993 14.025 16.0838
1 41.9809 1.02668 18.3116
1 35.9333 8.80675 28.0084
1 15.7162 40.8378 25.8367
1 7.88719 41.3369 40.7307
1 44.8451 31.225 32.6872
1 35.069 44.3261 5.40922