5415
 Atoms. Timestep: 0
1 10.5528 3.48216 27.1334
1 1.73474 40.1547 23.9385
1 41.4453 8.11915 7.22467
1 16.0416 24.4366 39.5264
1 13.7347 28.5446 19.9139
1 27.8519 24.3213 18.9472
1 11.6009 33.7456 33.7936
1 9.48459 37.0244 11.1781
1 27.0943 20.7726 40.4106
1 11.6248 17.6206 24.4974
1 3.98694 15.1329 35.643
1 14.5517 32.1574 17.8599
1 6.2413 2.62961 6.4087
1 9.2931 39.9598 20.2294
1 14.8366 14.3651 21.5983
1 32.0939 30.1219 30.9865
1 40.4254 32.2578 18.4834
1 27.9501 29.289 19.4415
1 40.9654 17.9649 21.6429
1 7.16516 29.2602 17.5498
1 39.2167 6.76269 11.2012
1 17.6438 0.41568 0.22
1 23.4767 31.218 10.7873
1 32.1369 23.3298 19.8515
1 9.51804 25.591 19.472
1 12.5169 35.6041 21.6315
1 12.9595 37.9733 9.57461
1 4.04568 29.8957 17.5793
1 27.9141 24.7497 15.8795
1 32.7741 10.0304 3.90954
1 15.7771 6.05673 9.51425
1 11.1768 14.4105 32.8814
1 38.2328 24.5293 2.3452
1 26.2085 40.5291 13.2076
1 1.61687 19.205 2.05953
1 6.80907 33.8798 42.4393
1 13.1976 38.7057 30.3705
1 3.34779 11.9539 20.9488
1 20.4448 23.0694 1.04467
1 23.7593 10.719 38.3491
1 12.8599 37.008 38.7015
1 26.2113 41.1431 23.6267
1 37.1238 11.0343 41.639
1 31.8523 22.6687 23.0395
1 39.7132 2.08302 42.0595
1 39.8969 19.2518 3.96914
1 14.2606 38.9467 2.64862
1 16.4544 3.15677 10.3104
1 12.9729 12.355 7.82782
1 13.1798 13.8612 13.2258
1 24.5384 27.7952 3.64776
1 36.7227 5.76145 12.6821
1 10.4277 29.8302 26.6591
1 37.9821 33.0354 34.2938
1 3.72931 11.2355 11.1792
1 39.6956 36.0222 7.02372
1 8.16595 41.0293 42.3408
1 27.8882 38.2554 17.3663
1 6.91729 36.434 39.3294
1 12.107 15.8803 30.197
1 22.5756 40.2452 9.55292
1 39.4136 19.6321 24.0003
1 41.9655 33.8264 34.6163
1 14.4755 17.9795 33.9037
1 8.37641 28.305 28.5493
1 37.7789 35.9999 15.5608
1 23.3922 6.45949 6.70649
1 5.94197 23.6974 15.9634
1 22.0849 21.1938 19.7223
1 8.2545 26.5348 0.05172
1 34.341 1.29554 32.8047
1 0.30458 24.6067 18.9784
1 1.7463 35.0321 38.264
1 5.86053 20.5054 4.88666
1 16.7656 34.53 31.6254
1 17.4096 38.9749 40.6642
1 23.7976 38.1204 21.3591
1 9.25232 40.5216 31.5657
1 31.3503 26.2059 18.4433
1 16.5195 14.6654 3.31333
1 34.7202 41.5512 41.2854
1 32.6386 0.12444 2.68317
1 24.185 34.4789 8.44475
1 34.2651 5.01325 41.1995
1 23.8946 8.58769 30.2407
1 16.126 11.5345 33.789
1 36.6784 39.6147 27.8567
1 13.561 22.9268 11.1006
1 31.795 35.3295 37.8866
1 4.02073 21.2817 2.31583
1 7.675 35.5381 2.24844
1 0.19581 6.00995 41.929
1 21.2957 6.72987 29.9586
1 13.3602 2.37761 5.13295
1 23.7822 40.3373 34.5177
1 36.5671 10.2336 26.7371
1 2.48127 18.7919 16.6597
1 27.0609 28.0479 41.6811
1 18.2525 28.9601 20.4704
1 0.52969 33.4136 3.22702
1 2.44229 34.8554 25.5349
1 29.4032 15.3757 8.7892
1 15.523 32.4884 12.8284
1 1.00937 28.9895 8.60025
1 41.1286 31.4219 32.7081
1 23.9676 30.2941 5.6577
1 24.3876 42.1139 42.1125
1 36.5633 35.6752 33.7141
1 42.008 19.5854 26.0089
1 25.9626 12.2637 36.6682
1 1.59664 7.46988 11.2381
1 38.871 12.5123 22.5733
1 2.71771 19.9512 34.7834
1 24.6392 24.364 29.0086
1 28.9878 38.0097 22.9082
1 5.20777 14.0346 32.9857
1 35.2502 6.239 9.88034
1 0.43238 5.45025 3.61777
1 22.6133 18.1875 18.4706
1 30.7123 37.0556 31.0752
1 3.33105 23.8647 6.31654
1 37.9782 26.8651 17.6275
1 34.2917 8.12849 34.0857
1 2.35768 5.17558 35.6636
1 32.1583 29.5991 39.0836
1 3.05909 13.1428 40.2153
1 34.1678 38.583 25.8416
1 20.2752 40.9516 30.2287
1 4.51152 21.7005 24.0098
1 14.4907 22.0054 24.8178
1 32.4127 11.6289 37.0242
1 42.5598 21.0523 4.10261
1 29.7156 1.63117 7.87152
1 20.6077 28.7229 25.5187
1 29.4624 3.06639 30.4437
1 26.8557 37.8894 9.58447
1 0.85835 34.7598 41.1737
1 15.6557 34.9421 42.0186
1 39.752 24.2885 25.6679
1 2.37373 14.0315 7.89108
1 10.0675 38.1371 8.38732
1 39.4795 8.97896 37.3491
1 19.3109 38.7982 36.612
1 3.67062 1.89903 18.2021
1 37.0561 39.7972 37.8931
1 32.2445 16.0998 12.513
1 22.608 4.3581 31.7663
1 23.0677 6.21768 9.66097
1 35.2074 12.8447 10.4407
1 32.1303 0.18857 40.3289
1 23.7798 33.5475 30.1785
1 12.8254 12.2443 22.4121
1 16.9991 21.9233 41.3224
1 17.2783 13.3029 28.6728
1 33.3066 20.1819 15.6538
1 8.5928 7.44883 23.2982
1 25.5212 40.9573 37.8113
1 5.45559 15.0664 13.3544
1 15.6016 4.58842 2.2352
1 42.2651 27.3216 4.98982
1 0.67634 29.4895 15.8938
1 13.5879 34.9679 10.3967
1 8.0961 14.9206 3.67923
1 24.9156 21.1641 21.17
1 40.6983 1.72176 33.4897
1 14.9398 20.7639 12.7328
1 6.91698 40.7174 35.2211
1 29.9732 29.6353 14.8882
1 3.99457 18.3558 27.4522
1 17.0372 21.918 22.0753
1 9.66074 11.6364 33.8737
1 42.5669 1.78342 22.3723
1 15.6103 28.9616 25.6216
1 6.58564 2.75683 9.84843
1 20.7978 13.4675 4.33144
1 4.06453 35.1403 29.0775
1 29.1887 8.20818 5.93343
1 24.1729 7.61399 17.1184
1 36.1345 19.1502 15.1055
1 32.6577 34.1895 27.3862
1 39.063 5.72235 36.28
1 11.2675 20.3169 7.16642
1 12.5197 0.21466 40.0183
1 25.3378 27.3496 31.3505
1 22.5251 8.17012 36.8968
1 26.6761 10.2065 0.76152
1 37.4736 38.0451 23.4613
1 33.8303 14.6664 17.4954
1 9.28684 11.9148 41.491
1 19.3263 39.659 33.5553
1 29.0528 18.3709 39.6274
1 11.6044 11.8717 29.8043
1 5.08435 4.63607 2.39788
1 27.5815 42.4583 36.1746
1 16.8354 24.9974 22.9094
1 25.683 40.8317 10.1575
1 15.3522 2.26379 33.8139
1 4.44177 7.02752 30.3225
1 29.558 41.9019 26.9027
1 4.26587 41.362 25.0418
1 39.5575 16.4544 36.6193
1 31.499 39.4749 27.2405
1 30.5868 6.94874 13.1442
1 23.1418 3.36262 1.59953
1 13.6141 15.6308 2.50966
1 10.0073 8.88611 5.86015
1 38.3898 14.5311 40.3772
1 19.3606 11.1955 10.4647
1 6.51842 10.94 2.98991
1 21.2574 33.4176 15.8245
1 30.9126 20.3609 13.5529
1 19.0136 24.6335 13.8643
1 14.4254 20.3644 40.0929
1 15.3914 42.3009 17.1963
1 12.7388 30.0663 6.91747
1 26.8359 26.621 10.9552
1 5.59106 20.3063 9.94279
1 41.2169 32.3999 28.685
1 3.81749 20.9236 7.37788
1 39.9931 39.7126 24.4559
1 11.9993 2.88878 18.8017
1 15.4453 9.0008 14.6066
1 33.0168 4.72754 24.3012
1 41.0554 26.2451 16.9833
1 41.2228 41.2038 36.4491
1 4.84316 12.8078 37.627
1 32.9899 39.0699 19.2989
1 27.1067 0.29169 2.54261
1 5.33716 40.1604 15.4148
1 21.3501 3.24975 36.6207
1 35.2859 3.57396 38.0736
1 2.3344 31.6314 1.23524
1 31.8146 40.0285 30.3202
1 2.53998 1.96367 13.0153
1 18.7402 14.2055 15.8147
1 34.6527 3.53568 35.0218
1 0.42709 42.5667 27.3541
1 39.844 33.5596 15.6233
1 9.0459 10.0889 1.36157
1 29.1967 26.6481 20.5734
1 23.652 40.4202 14.9122
1 32.1932 21.7374 36.7553
1 13.7517 12.72 32.0118
1 38.0871 17.9488 29.5655
1 31.2153 24.6009 10.2711
1 35.9953 26.7507 15.1378
1 36.5848 5.98295 34.212
1 0.26802 26.2184 11.028
1 0.63211 16.4059 6.62541
1 12.3232 41.8421 27.9966
1 28.3527 13.5004 4.93722
1 36.318 6.2814 1.37091
1 38.683 33.7602 11.9037
1 35.8091 1.73765 15.023
1 2.7427 7.65277 18.153
1 31.6634 26.5715 40.087
1 24.4084 36.3795 10.8901
1 29.2554 40.1604 37.5705
1 5.32273 12.5678 30.3748
1 11.6053 38.5935 22.1403
1 20.1455 16.1192 2.67238
1 9.8647 29.2007 0.99262
1 12.1957 36.2483 12.7828
1 37.2997 11.8859 5.73511
1 14.0437 41.0143 13.5015
1 21.3667 30.185 32.2257
1 0.18803 30.0854 39.3219
1 25.8814 22.9967 31.8122
1 29.3805 22.9351 39.6201
1 41.6083 3.74141 31.3031
1 13.9111 20.337 15.7457
1 38.2362 41.953 35.7321
1 10.3774 22.2322 42.6021
1 30.1022 13.6843 15.0242
1 18.0961 41.2885 18.538
1 21.1762 29.2231 40.5241
1 41.8282 41.4499 1.02073
1 32.628 14.8624 25.1245
1 31.4967 25.2863 0.24742
1 23.9969 10.5122 18.1005
1 35.9438 23.4846 22.1668
1 0.99198 30.0496 5.59057
1 38.5988 28.976 27.2087
1 0.45053 21.267 12.34
1 7.44776 21.2568 34.825
1 7.18827 16.5054 32.626
1 32.4756 15.4701 8.63754
1 32.3113 12.4414 7.83623
1 27.8033 7.66804 23.9772
1 14.1046 0.71677 22.5801
1 20.5238 29.3253 3.89053
1 36.2624 1.43241 40.0591
1 6.19701 13.9741 6.10909
1 12.1527 31.1708 1.00728
1 17.1147 8.12589 21.9239
1 25.6279 34.8627 13.4131
1 30.502 18.5318 30.6188
1 33.2695 32.9628 11.4857
1 29.142 31.2904 17.4088
1 25.2739 2.12892 21.6636
1 42.1315 9.56522 9.93497
1 8.7008 34.0637 39.9476
1 9.36464 7.32427 30.3641
1 41.5568 39.7077 27.3324
1 31.1711 1.41029 32.5232
1 26.8718 32.9749 42.2071
1 5.83519 17.3844 8.89941
1 5.6135 19.5298 21.7313
1 7.23473 26.2402 39.7839
1 39.1612 3.44052 2.05443
1 17.3126 16.1829 0.60402
1 21.3041 11.6691 0.18539
1 30.4442 21.7901 27.6266
1 1.36707 18.962 8.31242
1 13.3416 32.12 36.5677
1 10.4393 0.23449 20.0281
1 4.10313 6.26182 38.0947
1 18.0056 12.6366 18.439
1 37.7612 9.6982 31.5234
1 33.7314 29.6983 23.1145
1 1.15743 36.1382 28.0929
1 39.2564 33.1603 39.7483
1 12.43 18.7976 38.0333
1 4.29992 8.49784 40.4285
1 7.76574 14.9002 21.1201
1 10.1692 36.9669 30.0244
1 27.1024 33.4767 25.7315
1 11.3503 0.68509 15.9485
1 27.5723 4.03898 4.18338
1 34.0467 28.98 7.86978
1 17.7551 4.90085 22.3376
1 11.995 6.38479 15.7039
1 8.72566 18.1058 25.3444
1 39.6625 10.324 20.4398
1 14.5938 16.5399 13.655
1 5.95502 38.8978 40.9143
1 26.4091 38.1452 36.5964
1 0.25569 24.306 25.0807
1 1.60861 31.783 29.5404
1 41.0848 26.7372 35.723
1 39.3008 23.2856 4.97238
1 14.8804 31.4989 2.29389
1 20.3359 30.2506 12.6398
1 38.6799 11.0282 28.7212
1 13.3341 27.0209 36.0031
1 22.3362 30.5415 27.4813
1 3.69012 32.5745 27.3044
1 0.64034 28.5114 34.232
1 9.39408 10.9196 36.9821
1 8.59023 40.3597 24.5118
1 17.8776 0.68957 3.37833
1 23.554 30.4984 34.4459
1 35.792 33.9888 19.7088
1 14.9674 34.4869 3.35537
1 38.9961 8.22625 25.5329
1 16.0883 26.6492 20.2907
1 32.4629 13.0935 32.5788
1 18.3802 39.8049 8.3995
1 21.4707 41.8341 32.8598
1 6.16421 20.6971 39.5404
1 34.5513 36.8236 38.4856
1 42.599 36.3408 17.8898
1 30.1912 30.8205 26.8668
1 16.6554 29.8274 40.5011
1 41.9547 40.4103 39.5214
1 1.18112 33.1379 11.4149
1 37.3045 17.8027 9.65433
1 1.90684 3.39639 23.9778
1 25.0619 39.0655 28.1423
1 28.5784 25.6497 40.3799
1 8.43642 0.15711 38.9407
1 37.1349 22.0157 7.97675
1 1.88078 11.9355 0.32429
1 31.5313 2.97089 1.54684
1 18.13 35.7902 27.7946
1 39.6266 13.175 36.3247
1 40.2548 2.66339 20.4273
1 6.92746 26.3829 32.6278
1 20.8758 13.6371 34.5917
1 0.06769 19.1986 30.69
1 24.9118 17.1139 27.5386
1 0.90377 11.0314 17.6626
1 3.31595 33.502 31.5759
1 40.9828 5.55808 19.3562
1 15.7111 17.7322 25.3768
1 22.8296 28.6108 29.8839
1 20.6374 15.4646 11.1818
1 13.3145 41.1674 25.1703
1 18.0932 34.6449 4.56691
1 36.449 6.4506 20.6219
1 1.44867 7.72887 1.71325
1 24.7036 24.9899 15.8183
1 25.2613 9.07209 22.5989
1 6.2611 41.6538 19.0578
1 32.3741 3.25908 17.7859
1 26.9546 16.8535 10.0811
1 30.2019 11.4619 27.5082
1 33.7088 31.1212 17.616
1 37.8605 8.5215 16.0141
1 0.69699 0.14651 8.70383
1 39.6672 34.6801 42.5332
1 18.2354 22.3744 28.1854
1 31.1386 23.0483 34.2316
1 14.7995 38.1576 42.2791
1 38.5891 33.9423 20.4986
1 4.55718 1.57561 23.765
1 9.09654 21.4505 38.6819
1 27.7699 15.6336 24.3207
1 23.0506 6.69841 24.4849
1 7.926 31.1923 29.9361
1 31.5727 39.5176 35.6086
1 32.0838 6.72069 21.9841
1 39.0083 37.7447 31.9063
1 25.5465 33.7408 37.4905
1 0.7671 13.9721 14.1386
1 28.1532 2.041 38.4651
1 18.4102 8.10554 29.9447
1 29.2372 12.472 19.4192
1 24.2737 3.16839 34.0543
1 11.2521 19.0457 14.767
1 5.32759 18.3245 41.3119
1 20.7563 41.7803 3.41904
1 19.1429 34.238 37.5111
1 41.8396 29.3384 21.6485
1 5.59388 18.9039 33.815
1 19.4331 31.7765 5.73753
1 6.63964 10.5966 40.2385
1 20.7943 2.5785 15.7908
1 22.2146 18.1528 28.8586
1 3.48258 41.2935 8.25892
1 13.4913 32.5751 25.7941
1 9.1689 27.6415 21.6115
1 24.6959 0.53722 35.8455
1 11.8119 19.4599 33.329
1 34.7802 21.8273 19.659
1 23.4366 9.79928 11.1857
1 3.58223 21.5547 15.4186
1 34.469 16.9895 10.6567
1 14.3544 4.01631 31.3476
1 18.431 18.5756 18.4317
1 1.83712 4.36374 39.5481
1 28.3895 38.4095 40.1324
1 24.0018 2.59736 41.3722
1 20.3633 15.6493 28.3297
1 33.2272 3.52097 14.6883
1 37.5561 7.78125 41.4264
1 13.7574 1.30912 14.1789
1 3.66418 3.24744 4.97607
1 19.5966 27.9506 9.26752
1 1.62471 22.3065 22.7853
1 35.6624 40.5695 11.8487
1 38.426 13.3936 0.61282
1 4.83432 37.7741 31.729
1 27.9482 21.5303 13.6776
1 27.9068 31.5062 21.7597
1 33.5628 31.8022 20.6302
1 41.4657 28.5571 25.9695
1 4.80842 13.1915 27.3357
1 22.9607 2.16509 23.9791
1 39.79 10.7105 2.33454
1 33.2924 16.2811 42.1401
1 5.31399 26.3229 20.7311
1 30.4201 40.3978 10.071
1 33.3835 41.736 5.65695
1 2.21214 12.3907 25.2231
1 23.5861 3.30843 17.136
1 17.7456 3.2927 16.3279
1 17.5955 16.0908 29.878
1 5.59707 37.6887 17.4296
1 40.1923 1.50139 9.58477
1 14.4309 34.921 28.4796
1 11.1842 32.7965 3.6149
1 20.5069 8.96004 34.8446
1 25.4746 14.4719 17.575
1 39.4793 23.7683 12.5624
1 6.85026 12.8281 25.2952
1 5.84371 17.3882 36.5942
1 29.2883 26.6048 23.7127
1 29.588 29.2186 3.97996
1 41.5558 10.9271 42.3486
1 28.0907 17.077 6.61565
1 4.54817 38.4523 12.853
1 18.0793 27.7123 26.8949
1 26.5271 4.46061 41.9718
1 35.142 41.1569 1.64737
1 16.7487 21.9068 1.82113
1 2.87142 38.8818 40.4102
1 12.9355 11.3122 1.99601
1 17.76 21.5553 25.0753
1 33.8212 19.257 18.7155
1 11.9493 25.3437 10.2607
1 3.56861 21.1909 12.2623
1 29.0691 0.31983 41.0282
1 25.5259 33.5325 22.1541
1 26.7132 9.31182 29.1661
1 25.2799 13.6534 31.6587
1 22.7031 15.6476 5.75977
1 36.8139 7.14211 7.169
1 32.4926 7.58644 10.5794
1 11.5834 4.96605 5.99211
1 11.6205 11.3802 25.3857
1 35.989 21.466 27.9504
1 29.5871 34.8078 27.184
1 3.81902 33.663 41.8568
1 35.0274 0.89144 7.61378
1 8.66383 10.2585 24.9485
1 8.81666 5.53309 35.7077
1 21.2254 1.82242 42.4765
1 7.82343 40.0062 5.50546
1 7.02979 2.83857 0.72043
1 40.1985 29.5799 29.9035
1 30.0649 32.1027 29.6225
1 34.1205 25.792 17.2841
1 17.0926 41.9303 35.8362
1 39.2338 14.6603 19.0221
1 22.1918 11.8263 20.2671
1 25.4996 31.9294 32.3392
1 6.22459 38.0851 36.6135
1 29.2793 2.66294 17.5502
1 36.7563 18.7555 32.3743
1 1.03644 14.548 33.3908
1 2.35867 26.0444 37.4548
1 13.6669 27.6585 29.9194
1 42.367 39.5532 32.8957
1 40.3462 20.1564 28.6795
1 24.0818 26.0175 21.6391
1 7.24578 5.72259 38.5719
1 39.645 9.69493 13.7432
1 10.7525 37.9297 32.8897
1 32.6735 9.39295 40.765
1 29.2395 36.226 13.3167
1 33.9471 31.6997 40.4741
1 33.476 25.0254 35.0258
1 34.3575 30.1009 10.9309
1 32.0284 8.63281 1.07844
1 1.26141 4.81959 6.44844
1 34.9356 8.10566 22.8969
1 0.77827 15.2183 40.4842
1 9.19541 3.02661 6.19376
1 1.33234 3.1333 19.9542
1 3.20975 27.7245 26.2702
1 19.9412 20.9318 41.2732
1 27.2281 28.5494 37.0141
1 7.68785 1.93347 3.64483
1 19.9929 21.4996 38.2541
1 11.0386 22.3532 9.65251
1 30.6786 8.76885 32.1001
1 7.56821 15.3693 29.7165
1 11.3802 24.4885 36.036
1 12.5183 9.371 42.1337
1 0.95132 14.1462 21.0432
1 3.97641 29.8857 4.7418
1 20.6066 25.5643 16.4471
1 33.5225 19.2454 41.4403
1 38.7291 4.63878 30.0635
1 25.1389 29.2218 17.9012
1 10.4979 32.0145 7.94209
1 30.3405 14.1154 37.7102
1 42.5195 39.7596 9.20416
1 27.5223 41.4493 31.8338
1 26.3194 36.2698 39.1364
1 27.019 28.8895 2.10855
1 23.5574 20.2635 16.318
1 14.2333 25.1839 24.8154
1 12.8129 21.1395 4.52658
1 22.8446 6.4656 1.88769
1 27.8818 6.77567 40.2398
1 22.7476 23.0985 17.3003
1 4.04451 32.0939 10.752
1 1.97271 33.2492 35.6837
1 7.88446 13.5832 37.6371
1 13.0474 9.33471 6.68207
1 20.9892 31.06 23.5074
1 39.4118 13.3404 4.042
1 32.3774 5.57321 34.0988
1 6.59869 36.0438 12.0395
1 42.4111 12.4478 8.48739
1 13.3735 17.3448 21.7805
1 16.1507 7.6614 17.4635
1 37.2414 38.6196 10.1724
1 6.86547 4.00478 16.3444
1 29.8149 25.7462 30.5805
1 34.2672 7.31379 38.9931
1 7.32573 24.938 11.4307
1 5.7734 31.6736 32.291
1 33.3072 25.7662 8.0614
1 16.4811 31.238 15.4322
1 15.1488 31.8561 29.2132
1 28.5388 2.30932 0.62275
1 0.807 22.2243 30.6818
1 11.9007 42.0367 8.8904
1 21.8864 12.3823 9.05353
1 37.8204 12.1343 8.86309
1 35.8607 3.26367 9.19989
1 29.0874 4.47696 14.4178
1 2.05663 14.6735 27.2875
1 22.3943 28.7878 1.44085
1 12.6573 40.9881 17.7745
1 5.69989 0.42766 41.7597
1 18.1147 27.8042 2.32362
1 2.74664 0.60808 29.5791
1 36.1448 25.784 4.29345
1 39.3013 1.04863 24.7331
1 40.6411 6.12621 1.62696
1 42.0164 5.30446 11.3491
1 39.8521 0.27961 5.11792
1 29.7766 17.1772 34.5132
1 3.10375 28.6255 2.04675
1 30.4839 15.5741 40.563
1 10.8798 32.4574 30.9169
1 12.6012 38.5825 14.8888
1 19.8593 9.3832 37.9704
1 33.6225 38.1503 2.95858
1 4.5508 24.4872 27.8818
1 24.3792 32.756 27.1588
1 4.04531 29.3402 20.5905
1 5.73754 0.83396 30.9973
1 21.7539 19.4537 13.8551
1 5.42091 34.2406 22.8805
1 19.7471 32.439 42.2982
1 7.03619 17.6913 3.99873
1 11.8692 1.94103 11.3284
1 5.74183 13.8137 1.88947
1 19.6511 21.5581 12.9318
1 0.95476 26.2796 2.18055
1 16.4356 3.03623 4.86842
1 31.609 12.3762 17.3546
1 25.0922 6.35348 32.2832
1 11.7836 29.3454 22.1165
1 8.37807 19.9196 14.112
1 15.5149 22.1921 32.1443
1 29.4933 14.9031 0.65679
1 41.5172 4.05457 8.47398
1 20.3613 26.9437 12.1551
1 8.18107 20.3615 19.9721
1 29.1857 3.35835 33.9844
1 18.6116 32.7644 24.5302
1 0.84173 31.5633 18.3812
1 40.7967 8.67115 28.0648
1 41.1172 26.2434 13.7777
1 29.7484 31.7584 41.8319
1 26.9092 13.9953 20.3706
1 34.4664 41.5423 15.1612
1 29.258 41.6151 12.7539
1 11.158 42.238 0.23707
1 33.803 25.2123 38.1022
1 2.41575 16.5726 22.4595
1 28.3902 35.396 30.0453
1 3.54302 15.716 41.8663
1 16.1302 42.4479 24.8688
1 35.78 37.916 35.8455
1 13.9338 7.08644 28.7781
1 18.4568 23.1832 32.6054
1 6.83672 8.36246 31.8049
1 18.179 18.2684 3.89073
1 32.3447 27.1465 24.3182
1 13.6219 6.9017 24.7271
1 0.47391 11.9829 38.1159
1 24.7376 24.8979 18.8408
1 5.4455 35.7859 4.2892
1 1.91971 23.4103 3.42642
1 40.5474 29.2933 14.3716
1 11.0236 0.17844 36.9739
1 15.9701 28.5158 13.7399
1 4.81232 16.7538 5.9552
2 0.62134 29.4486 31.3671
2 27.2065 19.7724 19.2803
2 30.28 16.0175 4.7073
2 25.7891 20.6134 30.0427
2 29.3657 26.6102 5.553
2 32.2035 31.5699 6.84925
2 28.3768 16.5009 37.2526
2 40.633 27.9642 38.5933
2 38.8594 9.0658 5.83998
2 22.5537 39.9259 23.6743
2 26.2873 38.9356 33.0531
2 22.5007 16.206 37.7429
2 12.9466 41.9562 5.9177
2 39.2326 1.41634 39.1737
2 15.463 34.584 25.4705
2 7.71682 14.8164 8.79366
2 31.8561 3.21875 41.0049
2 5.51762 10.5961 19.124
2 32.9573 25.3672 29.6615
2 28.8953 1.4391 4.84015
2 29.9658 13.3771 24.218
2 32.1626 2.65726 11.821
2 20.0489 38.1065 28.6288
2 5.80177 41.2313 38.9125
2 6.53193 12.8235 11.005
2 41.1035 9.70967 23.2317
2 21.4006 33.5442 7.36812
2 34.6762 38.41 41.1228
2 42.4801 9.63438 3.64081
2 10.9634 9.03592 32.5249
2 3.81829 5.45595 22.6156
2 21.9323 3.59862 11.0401
2 13.0113 8.22481 18.0647
2 20.4056 19.3628 8.32145
2 32.0677 19.2121 34.77
2 16.2467 11.8774 2.00016
2 36.4671 29.401 13.373
2 18.0427 13.0338 36.0751
2 1.472 29.7647 24.6638
2 36.339 13.2868 18.8369
2 42.1794 12.8212 23.6397
2 2.78527 4.08929 27.0419
2 14.3863 3.83065 25.3661
2 4.88057 36.9324 24.9387
2 14.1281 39.4773 37.3763
2 6.81328 24.1772 34.8739
2 12.7173 18.5633 12.0261
2 7.20577 5.99524 25.8195
2 12.4799 29.7619 17.3154
2 5.9542 19.3601 29.4465
2 29.6437 38.0478 0.30448
2 33.7587 37.046 16.0221
2 41.9653 33.9036 6.1162
2 15.2018 42.357 38.4405
2 34.2655 5.69875 27.1293
2 39.6631 23.3387 28.6679
2 18.0295 10.1507 7.74915
2 0.19371 34.6419 8.92003
2 8.14748 21.057 26.1532
2 21.7418 25.6454 29.589
2 23.515 3.50496 28.7431
2 15.5232 37.4115 15.026
2 25.2886 36.0134 29.0718
2 23.8693 17.0838 21.2366
2 15.921 7.7465 39.9002
2 21.0568 36.0264 5.34294
2 10.89 23.5428 30.9518
2 35.727 27.5658 37.0385
2 29.2932 6.30237 33.3973
2 10.8495 35.7611 2.62153
2 11.7243 2.4408 24.1749
2 16.8543 30.3214 6.48746
2 34.1394 27.7321 31.114
2 34.846 14.094 7.56731
2 32.1973 35.8524 4.52201
2 5.20172 0.61762 11.7125
2 27.1678 41.3924 28.7858
2 26.6786 23.4378 11.5265
2 3.4461 37.9518 35.1662
2 16.7418 7.50793 2.75669
2 19.983 34.7224 20.6085
2 7.44582 0.96264 17.0095
2 23.8221 19.2109 23.4437
2 27.7942 18.319 29.2366
2 12.4401 4.55537 21.6748
2 34.0424 12.0456 41.7441
2 36.4154 24.4352 13.0047
2 19.6672 0.9755 28.6797
2 16.0461 8.83723 24.8874
2 40.0609 14.1836 9.67664
2 38.7872 7.70812 18.9473
2 40.1067 15.5831 2.21857
2 2.29554 23.9154 11.9063
2 32.0457 17.68 26.3044
2 26.8014 40.9386 40.6743
2 19.054 6.71273 13.1518
2 7.35665 8.79734 37.6478
2 18.9438 29.0381 38.4926
2 16.7548 37.7574 37.9901
2 1.56848 17.0278 35.1222
2 32.0848 41.2859 17.3549
2 39.6218 35.8468 34.2897
2 39.514 41.8301 41.3495
2 36.3038 14.9805 12.4109
2 29.1872 37.7733 26.0054
2 14.4264 0.69864 10.0802
2 32.7112 0.70316 19.6613
2 34.5478 29.979 29.0666
2 8.73199 1.46355 23.431
2 16.2208 40.0671 33.4037
2 29.8012 41.6753 33.9706
2 23.9899 1.27554 12.0503
2 3.18628 23.1469 32.6218
2 32.1426 34.2922 30.4643
2 8.04119 5.51931 41.7541
2 21.0532 8.57136 3.50328
2 26.6234 7.59201 34.9774
2 32.2442 4.60374 31.0155
2 42.3116 12.4461 5.24914
2 39.1741 17.68 19.0209
2 18.4071 17.21 7.03304
2 23.5319 34.9465 35.3804
2 2.509 23.1352 40.6523
2 12.797 41.37 31.9842
2 20.0395 35.5114 9.32506
2 7.19478 42.4867 14.033
2 21.0027 21.1008 29.1194
2 31.5124 12.5312 21.6203
2 14.5508 20.2038 29.8477
2 7.21059 29.8927 20.7005
2 22.5936 22.7659 36.9138
2 23.9634 42.268 25.3387
2 5.52534 6.24093 18.2004
2 1.39648 5.08358 32.6106
2 9.18194 24.4711 5.76654
2 7.34244 18.5773 0.99829
2 6.86862 2.87792 25.546
2 11.6761 7.3996 22.2617
2 6.56658 16.9223 23.3111
2 37.1067 35.5092 30.8341
2 16.9047 27.8203 29.8109
2 31.8641 40.282 14.109
2 8.45169 14.7999 40.3516
2 7.58433 6.02528 3.64469
2 4.36074 42.6167 36.0933
2 37.9295 11.6067 38.5662
2 10.2959 14.9057 13.5376
2 42.084 18.6157 15.603
2 26.1721 38.3706 25.1838
2 38.7361 18.3524 1.28876
2 28.6783 41.3579 7.74294
2 42.1715 25.3141 39.0038
2 26.0837 23.6385 22.7038
2 0.49967 2.54683 37.2736
2 11.4314 6.52036 27.0872
2 37.933 25.1347 39.918
2 11.2299 7.47991 35.2352
2 18.2222 6.65135 34.685
2 34.1955 36.5736 23.5354
2 12.2561 27.856 38.8615
2 25.1011 7.19256 4.10751
2 31.7214 20.3763 2.06852
2 33.3985 14.9953 22.0133
2 24.8598 41.8684 20.7816
2 0.01124 2.92149 0.1519
2 7.91936 35.5783 21.4588
2 4.74148 34.1376 38.941
2 3.34289 37.9522 22.1802
2 41.8494 26.6383 23.4946
2 20.5015 15.2015 40.0829
2 13.1271 10.0518 27.7861
2 29.2193 28.2961 28.3715
2 0.64257 7.44397 23.7844
2 36.0335 13.2093 21.8848
2 0.14365 20.4669 39.0865
2 9.81183 17.2587 34.4614
2 31.5158 37.9764 11.8165
2 29.0776 16.658 27.0115
2 20.4961 12.6053 28.0702
2 19.8355 41.1881 26.2121
2 8.85905 31.2032 38.6612
2 5.8132 8.33711 34.8428
2 26.3576 25.7801 38.0375
2 12.1859 5.13774 11.105
2 22.5352 18.0182 3.60822
2 26.3345 9.77314 40.2436
2 27.4748 5.80311 6.88641
2 5.01189 5.46982 14.1202
2 20.5902 11.2881 32.4565
2 20.3642 0.73727 19.1799
3 34.4786 40.5231 36.5006
3 18.8681 34.788 14.2888
3 26.9127 13.9226 14.8229
3 3.85108 11.8418 6.01535
3 19.5917 30.7687 15.7732
3 9.40824 17.6043 19.0353
3 9.79546 8.18269 19.1616
3 17.2274 23.4173 6.46155
3 18.0806 41.503 38.7111
3 18.0643 33.0192 29.211
3 21.9971 27.9279 34.8631
3 9.39022 39.3929 15.125
3 37.845 42.2897 27.0981
3 28.2493 2.84844 22.3182
3 15.8656 13.4691 8.24996
3 37.0183 34.9164 38.0522
3 27.673 22.3418 0.41835
3 22.8569 25.5569 32.6884
3 23.5864 37.0735 3.75905
3 0.94196 36.5415 2.51995
3 7.7189 22.6104 9.36562
3 10.3673 42.3633 13.133
3 15.2584 3.32616 21.0951
3 10.0311 7.54619 0.25096
3 12.2941 10.1756 36.7611
3 10.8068 40.1365 4.72736
3 3.43027 2.86462 31.4734
3 40.6067 12.6201 14.822
3 5.4955 40.2377 10.7524
3 41.5708 21.9243 6.76476
3 8.36322 39.8439 12.0957
3 16.9912 18.5321 13.2936
3 25.4973 15.2919 36.9259
3 42.3307 16.8634 13.0502
3 11.0122 16.3815 16.2062
3 9.53828 25.36 2.4775
3 14.9976 2.62984 17.9953
3 25.3319 1.10733 27.6664
3 7.15637 7.23262 9.60831
3 2.5289 40.7661 34.0312
3 7.73737 8.0392 16.7875
3 19.4729 19.3396 26.3816
3 42.459 31.7403 41.9335
3 4.79661 25.2981 13.3333
3 40.2018 16.0273 30.9562
3 13.5241 40.8085 20.8462
3 23.8286 18.5937 31.3883
3 39.9412 7.44734 30.9822
3 8.9732 28.8118 35.4539
3 8.98357 41.0585 9.18541
3 32.1671 31.0295 33.9123
3 35.0867 11.0855 24.0795
3 11.6614 33.8648 28.1462
3 39.4049 19.7917 7.06568
3 11.6555 19.0527 30.2972
3 9.51184 26.4242 30.8531
3 2.92899 3.69322 15.7415
3 13.3876 29.6327 27.5832
3 3.03781 42.0337 16.3615
3 38.3918 20.8115 10.3677
3 34.51 12.7159 4.18039
3 7.22763 7.30766 6.5573
3 25.8478 16.353 30.5199
3 15.6089 0.0172 31.6966
3 9.99612 13.0736 22.1633
3 15.0991 19.7501 22.9187
3 19.9417 39.6798 16.6653
3 15.4798 14.6594 36.7814
3 17.8397 7.85348 42.4169
3 41.1481 13.1356 40.1001
3 22.2983 37.8147 36.1178
3 8.35281 2.72428 20.8499
3 14.6674 30.8855 9.35021
3 31.7247 16.8088 18.5149
3 34.0334 14.5586 14.4314
3 29.9198 22.306 15.8575
3 13.855 14.6557 42.1117
3 20.1748 3.63866 25.2304
3 41.4433 19.846 9.98544
3 37.1623 34.9872 1.53505
3 37.0611 6.25659 38.6664
3 20.5129 1.75942 7.27398
3 16.1103 37.1452 29.9133
3 34.5658 24.9038 24.7245
3 6.29215 5.35509 33.9797
3 21.6693 42.3714 16.4496
3 16.9321 13.3636 41.8904
3 7.8757 21.6193 1.50137
3 40.1429 2.80798 36.3594
3 18.8636 5.91354 17.6106
3 8.00702 32.82 3.94464
3 27.3423 10.887 14.3986
3 17.8168 24.9693 34.9457
3 29.8474 28.3572 32.2955
3 30.3251 41.3838 4.89671
3 8.40778 24.5414 27.541
3 28.8401 22.2695 22.9859
3 3.11854 9.37367 24.5818
3 18.6939 8.40152 26.737
3 4.00726 29.1316 9.81837
3 37.94 17.3707 39.1895
3 31.7229 24.4149 5.61607
3 2.71179 38.4836 26.4918
3 19.2931 1.98636 10.296
3 11.6939 34.9301 36.5284
3 31.7105 19.554 23.7993
3 18.4115 9.45702 18.1787
3 38.8982 22.6202 23.0849
3 16.0515 26.4368 4.40652
3 35.4086 40.5725 23.8682
3 28.5331 24.2073 33.0909
3 32.9201 9.66843 18.2117
3 4.26743 8.65979 6.5521
3 24.8185 7.11818 11.8965
3 16.631 25.8681 15.3111
3 34.597 18.0505 36.2811
3 12.4982 39.5781 34.6387
3 35.5098 11.6021 36.4082
3 35.2251 34.4746 16.5468
3 28.9998 30.9087 6.65489
3 20.5877 15.0334 7.97758
3 37.151 41.6403 30.4426
3 23.4185 18.746 9.11986
3 6.09964 29.0482 34.2266
3 21.2793 15.9196 16.4397
3 12.8525 18.7636 2.34868
3 33.2075 5.69385 1.43131
3 21.816 14.825 0.40929
3 36.143 39.3211 19.2725
3 20.8217 33.2634 35.0145
3 21.3038 7.06537 15.952
3 26.7123 37.6767 14.3742
3 12.8248 1.35847 2.13477
3 38.0812 0.04548 7.768
3 27.7939 30.6241 24.7347
3 32.3836 36.3879 42.3897
3 18.3849 32.6104 11.7813
3 6.7996 26.0618 17.9751
3 25.4643 31.6816 2.11426
3 18.8471 35.9668 24.6928
3 26.7747 40.5295 5.67843
3 12.2387 9.88919 20.4481
3 29.5874 34.5493 15.9941
3 27.5959 37.5954 6.52961
3 7.96658 16.9463 13.5496
3 18.2828 34.5656 32.1467
3 2.42021 3.89572 5.78164
3 1.17037 7.3828 17.9237
3 1.66002 4.09243 28.1572
3 11.9665 17.4678 30.5389
3 17.357 3.18269 14.7292
3 27.7045 41.1543 13.0747
3 13.5827 15.0065 0.97719
3 31.2492 14.1192 24.9728
3 13.193 28.4222 28.571
3 40.0705 4.71948 8.01119
3 17.6574 14.3573 27.4247
3 41.5619 11.2904 23.3379
3 39.8305 34.0217 41.0491
3 9.84984 30.2651 35.1781
3 39.2909 29.8155 15.1258
3 39.6582 35.4852 28.6822
3 37.3715 31.0367 37.8198
3 23.1096 33.0898 0.21215
3 12.4786 2.24532 31.0905
3 26.5332 3.97405 9.72126
3 14.9869 15.2684 3.16764
3 42.0149 38.2952 42.6564
3 2.49343 29.1606 12.8208
3 6.66604 16.1849 13.0835
3 15.1497 38.9543 33.4713
3 40.7595 37.1313 21.5518
3 17.4408 35.4029 5.83493
3 2.20211 12.0781 14.4915
3 42.0583 25.3825 17.9064
3 13.3437 39.8055 14.2746
3 3.97424 35.5485 8.14981
3 26.6896 27.323 37.7928
3 22.1158 3.20141 16.4337
3 38.6693 7.34774 24.212
3 31.8347 40.9256 9.36333
3 7.70265 24.6167 28.8409
3 6.47657 27.6876 33.3926
3 16.7375 42.1984 38.9205
3 37.3172 21.6933 9.47971
3 40.5957 5.10234 25.5963
3 29.1971 3.88723 23.4478
3 26.2379 39.7443 24.3065
3 12.489 33.0342 26.936
3 2.53779 30.1344 36.5885
3 21.9899 25.6112 31.3357
3 21.4299 26.7812 35.8622
3 4.6684 1.54502 19.2939
3 7.95736 6.6111 24.5505
3 23.2193 22.4269 35.544
3 7.47555 11.5603 10.3629
3 28.3211 16.0927 9.77256
3 11.109 34.9443 24.8846
3 25.4714 7.07134 13.5518
3 0.85904 27.921 30.7364
3 9.18193 12.9328 6.05586
3 20.7887 14.1671 28.4017
3 40.242 8.168 26.6092
3 5.03644 20.601 22.8774
3 5.29432 5.27435 22.2107
3 41.0852 41.9305 5.52005
3 10.1955 4.20935 6.14405
3 16.0719 20.425 1.21705
3 2.22075 5.69195 7.42693
3 20.3478 1.19207 27.3404
3 38.4874 41.655 15.5101
3 35.1621 18.4045 19.0165
3 33.8164 29.6071 27.6376
3 11.3526 20.7443 34.1895
3 31.9442 28.0958 39.6276
3 42.4321 18.5505 21.6079
3 19.6002 29.7336 32.2311
3 10.8755 42.4759 21.5103
3 20.2012 27.0294 10.5494
3 33.5668 13.4989 29.3556
3 6.46659 37.3 37.9655
3 29.2431 4.35822 16.0805
3 7.06766 11.2248 19.5261
3 39.7469 18.3891 7.65848
3 21.6006 15.596 38.8982
3 10.8183 3.78358 18.1789
3 15.917 28.2474 32.5573
3 27.7515 26.3374 41.6684
3 5.63013 38.9569 16.4216
3 9.70482 41.2828 23.7895
3 20.7623 25.8824 6.30203
3 9.44381 17.8561 38.7312
3 42.0597 14.3499 40.6947
3 9.07948 27.3059 29.6135
3 25.6469 16.0435 17.5739
3 2.12915 2.66677 11.6788
3 42.0593 28.8609 20.1183
3 33.4739 19.7306 17.2212
3 14.1106 16.4666 34.1069
3 37.3922 4.89477 17.1689
3 24.0282 41.7513 35.3456
3 20.447 35.5096 19.2348
3 2.26479 32.7626 30.6536
3 40.4583 31.0682 29.2355
3 26.8038 9.56998 2.54812
3 31.2348 38.5889 30.8599
3 9.05626 21.4824 2.71112
3 23.2964 15.2168 1.01951
3 24.3932 0.21205 26.7657
3 40.4319 37.8154 28.1154
3 33.342 13.3089 13.8912
3 27.0429 10.3825 30.2134
3 31.9705 32.7041 8.04523
3 40.7331 6.28521 11.4993
3 37.1508 21.4658 29.1204
3 40.4804 30.4771 13.2215
3 10.2002 21.1398 39.8425
3 16.5464 36.5551 11.1847
3 40.2817 11.1138 14.3129
3 3.09913 39.2455 34.1598
3 8.54631 16.0968 28.6856
3 35.9168 12.2149 4.95578
3 3.30329 6.46754 21.3781
3 24.4693 8.68994 11.7934
3 30.3929 32.2429 17.8368
3 17.1628 36.8388 28.5541
3 38.921 21.4845 31.6605
3 4.56494 11.3078 37.223
3 12.8432 12.2409 9.34051
3 21.0412 3.28676 31.9268
3 26.9926 34.0652 13.6009
3 40.0038 20.6896 9.9607
3 40.0472 2.27278 34.8398
3 6.46903 7.31765 17.4059
3 29.1264 28.3691 14.3864
3 24.0939 32.9342 28.6708
3 0.93957 2.18694 21.176
3 20.2549 14.8364 3.53952
3 2.914 4.19996 22.9553
3 9.35529 41.4978 32.8819
3 7.18062 16.3753 8.81742
3 28.6377 33.9209 26.2448
3 1.052 39.2064 8.31469
3 6.75953 19.1933 4.60472
3 32.387 27.737 25.8885
3 28.4521 22.8832 19.0067
3 41.3593 33.1841 27.3041
3 35.0519 0.29232 14.8486
3 3.43022 37.3667 31.4028
3 1.2699 1.7546 35.8903
3 1.05535 31.484 0.28335
3 42.2016 28.1592 27.4356
3 12.0364 1.21309 36.2961
3 2.66143 42.2362 14.85
3 23.004 21.3803 5.97836
3 18.4714 28.8083 34.6849
3 18.2567 36.1323 35.5314
3 1.04833 36.4366 32.4766
3 15.6184 10.2021 25.5325
3 0.79749 23.2785 29.3659
3 4.66153 29.6344 39.5911
3 11.0384 33.4539 32.2625
3 11.5847 35.4696 6.30201
3 29.9123 27.8651 4.7737
3 8.38369 39.5087 41.6509
3 30.8214 12.5475 15.968
3 41.9606 38.3113 33.8194
3 19.9031 0.61891 6.52611
3 28.3631 5.06706 7.9975
3 14.6367 26.3049 36.4986
3 16.3159 34.2731 8.02573
3 36.8551 39.1285 17.7485
3 27.5434 35.73 33.7742