LAMMPS (29 Aug 2024)
OMP_NUM_THREADS environment is not set. Defaulting to 1 thread. (src/comm.cpp:98)
  using 1 OpenMP thread(s) per MPI task
# mpirun -np 16 lmp -in input.in
# mpirun -np 6 lmp -in input.in

# hoanganh_nguyen@mines.edu
# Na20-Li20-SiO2

# npt1 -> npt2 -> nve
# npt1: input: initial/random coordinates for all particles
# npt1: settup temp, pressure, atoms, ... with small timestep: 0.0005/0.0001 because the intial energy is large
# npt1: output restart1.dat
# npt2: input restart.dat, set up with the bigger timestep: 0.001 (1fs)
# npt2: output restart2.dat
# nve: input restart2.dat

# inputs and settup
units		    metal                           # amstrong, bar, eV, K, ...
variable    	TK1 equal 3000                  # temperature
variable    	Pbar1 equal 1.0e0               # pressure
variable        nsteps equal 1000000               # number of time steps
boundary	    p p p                           # periodic boudaries
atom_style	    charge                          # electrostatic interactions

# read the mass, coordinates of particles and box size
read_data	data-4.tsv
Reading data file ...
  orthogonal box = (-0.5 -0.5 -0.5) to (53.5 53.5 53.5)
  2 by 2 by 4 MPI processor grid
  reading atoms ...
  9999 atoms
  read_data CPU = 0.059 seconds
# read_restart	restart_CPS.dat             # for the latter simulation

# particle types
group 		Na    type    1
2222 atoms in group Na
group 		Li    type    2
2222 atoms in group Li
group 		Si    type    3
1111 atoms in group Si
group 		O    type     4
4444 atoms in group O

# Assign charges to ions/do not need, Lammps automatically gives this
#set type 1 charge +2.0   # Ca²⁺
#set type 2 charge +5.0   # P⁵⁺
#set type 3 charge +4.0   # Si⁴⁺
#set type 4 charge -2.0   # O²⁻

# set velocity based on the velocity
# 3000: temperature
# 277387: random number seed
# mom yes: total momentum of the system is zero
velocity	all create 3000 277387 mom yes

# buck: Buckingham potential for short range interactions
# coul: Coulomb potential for long range interactions
# long: long-range corrections applied to the Coulombic interactions using Ewald summation or PPPM
# 10: cutoff distance.Within 10 A, Buckingham and Coulomb potentials are applied.
# Beyond 10 A. Buckingham is not applied. Coulomb potential is corrected using Ewald.

pair_style hybrid/overlay morse 5.5 lj/cut 5.5 coul/long 15.0

# Morse potential for cation-anion pairs
pair_coeff 1 4 morse 0.023363 1.763867 3.006315
pair_coeff 2 4 morse 0.001114 3.429506 2.681360
pair_coeff 3 4 morse 0.340554 2.006700 2.100000
pair_coeff 4 4 morse 0.042395 1.379316 3.618701

# Repulsive term using lj/cut for cation-anion pairs
pair_coeff 1 4 lj/cut 0.0 5.0 5.5  # Repulsion for Na-O
pair_coeff 2 4 lj/cut 0.0 1.0 5.5  # Repulsion for Li-O
pair_coeff 3 4 lj/cut 0.0 1.0 5.5 # Repulsion for Si-O
pair_coeff 4 4 lj/cut 0.0 22.0 5.5 # Repulsion for O-O

# Coulombic interactions
pair_coeff * * coul/long


#  The accuracy of the Ewald summation
kspace_style ewald/disp 1e-4

# Set neighour atom list/skin distance 10 + 0.3 = 10.3
# Do not need to modify
neighbor	0.3 bin
neigh_modify	delay 10

# NVE ensemble simulaton with dt=1 fs
# fix		1 all nve

# print out with thermo each 100 timesteps
thermo		100
timestep	0.001          #0.001 = 1 fs

thermo_style	custom	step	temp	press	vol	density	pe	ke	etotal

# output trajectory to xyz file every 50000 timesteps
# do not need to change
dump 		1 all xyz 50000 trajectory.xyz
dump_modify	1 element  1 2 3 4



# 1st: run the npt
# starting temp/press -> target temp/press
# iso: pressure is controlled isotropically
# 10: damping parameter for temp/press
fix 1 all npt temp ${TK1} ${TK1} 10 iso ${Pbar1} ${Pbar1} 10
fix 1 all npt temp 3000 ${TK1} 10 iso ${Pbar1} ${Pbar1} 10
fix 1 all npt temp 3000 3000 10 iso ${Pbar1} ${Pbar1} 10
fix 1 all npt temp 3000 3000 10 iso 1 ${Pbar1} 10
fix 1 all npt temp 3000 3000 10 iso 1 1 10

# 2st: run the nve after getting the equilibrium state
# fix 1 all nve

# compute mean squared distance
# do not need to change
# compute 	1	all	msd
#compute 	1	Ca 	msd
#fix 2  Ca 	ave/time  1  1    1000  c_1[4]   file  CPS_Ca.msd
#compute 	2	P 	msd
#fix 3  P 	ave/time  1  1    1000  c_2[4]   file  CPS_P.msd
#compute 	3	Si 	msd
#fix 4  Si 	ave/time  1  1    1000  c_3[4]   file  CPS_Si.msd
#compute 	4	O 	msd
#fix 5  O 	ave/time  1  1    1000  c_4[4]   file  CPS_O.msd

# run with nsteps steps
run ${nsteps}
run 1000000

CITE-CITE-CITE-CITE-CITE-CITE-CITE-CITE-CITE-CITE-CITE-CITE-CITE

Your simulation uses code contributions which should be cited:

- Type Label Framework: https://doi.org/10.1021/acs.jpcb.3c08419

@Article{Gissinger24,
 author = {Jacob R. Gissinger, Ilia Nikiforov, Yaser Afshar, Brendon Waters, Moon-ki Choi, Daniel S. Karls, Alexander Stukowski, Wonpil Im, Hendrik Heinz, Axel Kohlmeyer, and Ellad B. Tadmor},
 title = {Type Label Framework for Bonded Force Fields in LAMMPS},
 journal = {J. Phys. Chem. B},
 year =    2024,
 volume =  128,
 number =  13,
 pages =   {3282–-3297}
}

CITE-CITE-CITE-CITE-CITE-CITE-CITE-CITE-CITE-CITE-CITE-CITE-CITE

EwaldDisp initialization ...
Generated 0 of 6 mixed pair_coeff terms from geometric mixing rule
  G vector = 0.1830088,   accuracy = 0.0014399645
Generated 0 of 6 mixed pair_coeff terms from geometric mixing rule
Neighbor list info ...
  update: every = 1 steps, delay = 10 steps, check = yes
  max neighbors/atom: 2000, page size: 100000
  master list distance cutoff = 15.3
  ghost atom cutoff = 15.3
  binsize = 7.65, bins = 8 8 8
  6 neighbor lists, perpetual/occasional/extra = 6 0 0
  (1) pair morse, perpetual, trim from (2)
      attributes: half, newton on, cut 5.8
      pair build: trim
      stencil: none
      bin: none
  (2) pair lj/cut, perpetual, trim from (4)
      attributes: half, newton on, cut 5.8
      pair build: trim
      stencil: none
      bin: none
  (3) pair coul/long, perpetual
      attributes: half, newton on
      pair build: half/bin/atomonly/newton
      stencil: half/bin/3d
      bin: standard
  (4) pair morse, perpetual, skip from (3)
      attributes: half, newton on
      pair build: skip
      stencil: none
      bin: none
  (5) pair lj/cut, perpetual, copy from (4)
      attributes: half, newton on
      pair build: copy
      stencil: none
      bin: none
  (6) pair coul/long, perpetual, copy from (3)
      attributes: half, newton on
      pair build: copy
      stencil: none
      bin: none
  vectors: nbox = 9, nkvec = 1535
Per MPI rank memory allocation (min/avg/max) = 23.12 | 24.14 | 24.67 Mbytes
   Step          Temp          Press          Volume        Density         PotEng         KinEng         TotEng    
         0   3000           80121.656      157464         1.7801936     -7581.0487      3877.0288     -3704.0199    
       100   40180.264      504966.97      157825.16      1.7761199     -55778.278      51926.681     -3851.5975    
       200   40927.724      491919.01      159034.17      1.7626174     -57228.851      52892.654     -4336.1965    
       300   40356.837      476856.48      160766.64      1.7436229     -57260.138      52154.873     -5105.2656    
       400   39757.266      466436.61      162446.89      1.725588      -57272.417      51380.021     -5892.3954    
       500   39625.356      451404.64      163982.5       1.7094287     -57784.933      51209.549     -6575.3844    
       600   38960.404      442698.92      165546.68      1.6932771     -57572.527      50350.203     -7222.3248    
       700   38777.986      432317.78      167139.12      1.6771442     -58001.794      50114.456     -7887.3382    
       800   38193.079      418934.19      168666.61      1.6619554     -57923.669      49358.556     -8565.1124    
       900   37950.318      408443.71      170098.49      1.6479652     -58280.41       49044.825     -9235.5852    
      1000   37394.747      397469.77      171460.69      1.6348727     -58224.641      48326.837     -9897.8041    
      1100   37387.656      388321.21      172786.68      1.6223265     -58860.85       48317.673     -10543.178    
      1200   36574.803      380854.51      174089.41      1.6101863     -58445.584      47267.188     -11178.396    
      1300   36663.439      372340.95      175377.93      1.5983562     -59207.091      47381.736     -11825.355    
      1400   36033.079      362664.73      176651.37      1.586834      -59022.056      46567.095     -12454.962    
      1500   35737.3        360814.32      177908.25      1.5756234     -59259.528      46184.847     -13074.681    
      1600   35550.395      344818.54      179152.47      1.5646806     -59606.312      45943.302     -13663.009    
      1700   34938.722      343379.16      180383.86      1.5539993     -59433.906      45152.811     -14281.095    
      1800   34402.905      331448.44      181606.08      1.5435408     -59326.886      44460.351     -14866.535    
      1900   34137.071      322830.33      182817.81      1.5333101     -59574.357      44116.802     -15457.555    
      2000   33864.764      314413.98      184020.21      1.5232913     -59816.884      43764.888     -16051.996    
      2100   33322.166      315079.19      185212.25      1.5134874     -59699.375      43063.666     -16635.709    
      2200   33285.867      302698.9       186396.25      1.5038736     -60214.288      43016.755     -17197.533    
      2300   32963.301      295726.81      187572.78      1.4944407     -60346.384      42599.889     -17746.495    
      2400   32207.831      294929.87      188741.07      1.4851903     -59929.069      41623.563     -18305.506    
      2500   32487.183      289787.69      189902.46      1.4761073     -60847.72       41984.581     -18863.139    
      2600   31801.511      285087.81      191056.49      1.4671912     -60508.901      41098.458     -19410.443    
      2700   31687.564      276292.89      192204.46      1.4584281     -60891.289      40951.199     -19940.09     
      2800   31180.146      276545.25      193345.89      1.4498182     -60745.975      40295.442     -20450.533    
      2900   30565.563      267217.84      194480.83      1.4413575     -60458.546      39501.19      -20957.356    
      3000   30620.197      259737         195608.2       1.4330503     -61056.218      39571.795     -21484.423    
      3100   30130.405      252307.38      196728.1       1.4248925     -60927.235      38938.816     -21988.419    
      3200   30026.012      248881.13      197842.07      1.4168695     -61288.724      38803.904     -22484.82     
      3300   29594.281      249408.74      198949.68      1.4089814     -61207.774      38245.96      -22961.814    
      3400   29005.793      239588.2       200053.46      1.4012074     -60931.935      37485.432     -23446.503    
      3500   29160.282      234640.98      201151.21      1.3935606     -61608.63       37685.084     -23923.546    
      3600   29021.845      230789.62      202244.7       1.3860259     -61897.806      37506.176     -24391.631    
      3700   28660.897      226729.81      203330.15      1.3786268     -61896.021      37039.707     -24856.314    
      3800   28285.191      225944.34      204412.1       1.3713298     -61864.499      36554.167     -25310.333    
      3900   27987.746      217001.72      205490.35      1.3641341     -61935.398      36169.765     -25765.633    
      4000   27921.426      213656.58      206561.49      1.3570603     -62301.369      36084.058     -26217.311    
      4100   27426.563      211519.08      207627.83      1.3500907     -62105.645      35444.525     -26661.12     
      4200   27287.329      206952.13      208688.68      1.3432276     -62366.941      35264.587     -27102.354    
      4300   26899.714      202112.14      209744.98      1.336463      -62294.933      34763.655     -27531.278    
      4400   26782.38       199558.85      210795.63      1.3298018     -62570.976      34612.019     -27958.957    
      4500   26469.351      193184         211840.59      1.3232422     -62593.176      34207.479     -28385.698    
      4600   25996.898      193362.49      212881         1.3167751     -62399.53       33596.907     -28802.622    
      4700   25987.453      187593.49      213918.46      1.310389      -62800.611      33584.701     -29215.91     
      4800   25678.078      188728.05      214950.41      1.304098      -62807.75       33184.883     -29622.867    
      4900   25481.909      179491         215977.69      1.2978951     -62953.894      32931.365     -30022.529    
      5000   25109.13       178567.55      216999.81      1.2917818     -62861.64       32449.607     -30412.034    
      5100   24974.312      173232.83      218016.25      1.2857592     -63070.835      32275.376     -30795.459    
      5200   24931.929      169918.05      219027.4       1.2798234     -63404.836      32220.602     -31184.233    
      5300   24704.285      169761.82      220035.82      1.273958      -63492.563      31926.409     -31566.155    
      5400   24482.288      165239.8       221040.12      1.2681698     -63581.05       31639.512     -31941.539    
      5500   24062.571      161986.07      222040.12      1.2624583     -63406.468      31097.094     -32309.375    
      5600   23862.314      159471.7       223033.9       1.2568331     -63513.42       30838.293     -32675.127    
      5700   23727.913      156636.9       224023.14      1.2512832     -63702.404      30664.601     -33037.803    
      5800   23393.034      157464.76      225008.02      1.2458062     -63625.536      30231.822     -33393.714    
      5900   23290.09       147427.07      225988.97      1.2403986     -63841.178      30098.783     -33742.395    
      6000   23023.858      146434.59      226964.09      1.2350694     -63844.363      29754.721     -34089.642    
      6100   22869.579      145474.92      227932.58      1.2298216     -63987.965      29555.339     -34432.625    
      6200   22863.632      147985.6       228897.73      1.224636      -64319.474      29547.653     -34771.821    
      6300   22457.365      144047.98      229862.13      1.2194979     -64130.263      29022.617     -35107.645    
      6400   22449.295      140975.69      230823.28      1.21442       -64449.32       29012.188     -35437.132    
      6500   22174.942      137695.83      231779.44      1.2094101     -64425.803      28657.63      -35768.173    
      6600   21863.001      131902.78      232732.14      1.2044593     -64339.882      28254.495     -36085.387    
      6700   21674.149      135172.24      233679.5       1.1995763     -64413.475      28010.434     -36403.042    
      6800   21291.97       128411.45      234621.62      1.1947595     -64233.531      27516.527     -36717.004    
      6900   21481.244      128380.84      235559.15      1.1900043     -64787.507      27761.133     -37026.374    
      7000   21206.622      123308.07      236492.85      1.185306      -64737.027      27406.228     -37330.799    
      7100   21040.121      126034.28      237422.99      1.1806624     -64820.806      27191.052     -37629.754    
      7200   20870.999      125467.82      238350.37      1.1760686     -64903.653      26972.488     -37931.165    
      7300   20732.304      121152.91      239278.53      1.1715067     -65019.38       26793.247     -38226.133    
      7400   20555.252      120332.68      240205.25      1.166987      -65086.543      26564.435     -38522.108    
      7500   20254.936      119185.22      241125.21      1.1625346     -64987.388      26176.324     -38811.064    
      7600   20226.604      115375.28      242040.99      1.158136      -65238.42       26139.709     -39098.711    
      7700   20103.273      111582.92      242951.33      1.1537965     -65356.248      25980.323     -39375.925    
      7800   19938.415      112865.91      243856.21      1.1495151     -65422.898      25767.269     -39655.629    
      7900   19872.715      109843.7       244759.85      1.1452712     -65615.691      25682.362     -39933.328    
      8000   19604.788      108864.14      245661.24      1.1410689     -65542.436      25336.109     -40206.327    
      8100   19303.281      105763.75      246560.29      1.1369081     -65419.98       24946.458     -40473.522    
      8200   19151.805      100950.55      247453.48      1.1328044     -65492.003      24750.7       -40741.303    
      8300   19053.738      102314.88      248338.4       1.1287678     -65626.751      24623.964     -41002.787    
      8400   18863.132      102591.11      249221.48      1.1247682     -65643.149      24377.636     -41265.514    
      8500   18767.681      97442.887      250104.32      1.1207979     -65776.351      24254.28      -41522.071    
      8600   18619.199      96267.701      250982.1       1.116878      -65838.472      24062.39      -41776.082    
      8700   18417.509      98018.799      251853.5       1.1130137     -65827.012      23801.738     -42025.274    
      8800   18429.569      96474.604      252721.17      1.1091924     -66089.174      23817.324     -42271.85     
      8900   18299.726      92715.883      253586.51      1.1054074     -66166.874      23649.521     -42517.352    
      9000   18138.561      92753.16       254449.65      1.1016576     -66202.179      23441.24      -42760.939    
      9100   18048.107      92500.841      255311.95      1.0979369     -66328.208      23324.344     -43003.864    
      9200   17849.176      92264.612      256174.67      1.0942393     -66308.903      23067.257     -43241.646    
      9300   17725.5        89268.18       257034.64      1.0905783     -66389.231      22907.424     -43481.807    
      9400   17574.284      87588.311      257892.54      1.0869504     -66424.386      22712.002     -43712.384    
      9500   17395.495      86100.947      258745.02      1.0833692     -66427.337      22480.945     -43946.392    
      9600   17249.387      84913.985      259593.27      1.0798292     -66465.827      22292.124     -44173.703    
      9700   17241.818      84748.664      260438.56      1.0763245     -66684.354      22282.341     -44402.012    
      9800   17091.378      81602.248      261282.19      1.0728492     -66714.574      22087.922     -44626.652    
      9900   16954.735      79315.713      262120.54      1.0694179     -66755.096      21911.332     -44843.765    
     10000   16828.691      77544.601      262951.66      1.0660378     -66810.433      21748.44      -45061.992    
     10100   16601.913      78014.931      263775.97      1.0627064     -66731.008      21455.365     -45275.643    
     10200   16470.589      76163.484      264594.32      1.0594196     -66773.971      21285.65      -45488.321    
     10300   16392.257      77191.93       265411.11      1.0561592     -66883.714      21184.418     -45699.297    
     10400   16358.528      76538.195      266226.87      1.052923      -67050.003      21140.827     -45909.175    
     10500   16074.171      75735.873      267040.19      1.0497161     -66888.81       20773.341     -46115.469    
     10600   16109.656      74932.589      267850.32      1.0465412     -67136.578      20819.2       -46317.378    
     10700   16088.676      71669.761      268656.64      1.0434002     -67311.251      20792.087     -46519.165    
     10800   15722.296      72275.844      269458.48      1.0402953     -67036.188      20318.598     -46717.59     
     10900   15705.832      69823.421      270254.93      1.0372295     -67213.179      20297.321     -46915.859    
     11000   15496.351      67679.048      271049.39      1.0341894     -67136.525      20026.6       -47109.925    
     11100   15516.449      68269.617      271840.53      1.0311795     -67355.279      20052.573     -47302.706    
     11200   15398.175      67843.502      272630.97      1.0281899     -67391.475      19899.722     -47491.753    
     11300   15405.136      68241.65       273418.12      1.0252298     -67591.312      19908.719     -47682.593    
     11400   15399.64       65514.391      274206.22      1.0222832     -67773.143      19901.616     -47871.527    
     11500   15222.8        63630.813      274995.12      1.0193504     -67731.643      19673.078     -48058.565    
     11600   15149.726      66154.336      275782.55      1.0164399     -67822.348      19578.641     -48243.707    
     11700   14986.7        63332.994      276569.92      1.0135462     -67794.891      19367.956     -48426.936    
     11800   14792.507      63264.81       277350.11      1.0106951     -67723.954      19116.992     -48606.962    
     11900   14873.915      58941.765      278123.63      1.0078841     -68008.121      19222.199     -48785.922    
     12000   14743.886      60654.921      278891.26      1.00511       -68017.251      19054.157     -48963.094    
     12100   14704.078      62525.564      279657.15      1.0023573     -68142.419      19002.712     -49139.708    
     12200   14405.878      57570.619      280420.09      0.99963022    -67927.304      18617.335     -49309.969    
     12300   14439.15       57938.464      281179.45      0.99693059    -68141.749      18660.334     -49481.415    
     12400   14211.225      61156.122      281937.46      0.99425028    -68020.246      18365.777     -49654.47     
     12500   14241.132      58019.333      282693.41      0.99159155    -68227.36       18404.427     -49822.934    
     12600   14179.041      59087.599      283444.09      0.98896538    -68314.66       18324.184     -49990.476    
     12700   13963.811      54486.221      284194.06      0.98635557    -68199.275      18046.032     -50153.242    
     12800   13821.875      51551.292      284938.52      0.98377853    -68180.784      17862.602     -50318.183    
     12900   13842.335      56682.993      285678.87      0.98122901    -68367.741      17889.044     -50478.697    
     13000   13731.463      53300.501      286418.7       0.97869445    -68384.886      17745.759     -50639.127    
     13100   13724.054      52208.32       287156.02      0.97618152    -68534.354      17736.184     -50798.171    
     13200   13513.526      51902.671      287890.48      0.9736911     -68421.177      17464.11      -50957.067    
     13300   13490.023      50062.375      288622.78      0.97122061    -68545.816      17433.736     -51112.079    
     13400   13442.941      49561.51       289351.4       0.96877497    -68640.219      17372.889     -51267.33     
     13500   13302.777      48026.621      290075.95      0.96635518    -68610.735      17191.75      -51418.985    
     13600   13180.9        49865.478      290796.68      0.96396009    -68604.704      17034.243     -51570.46     
     13700   13173.008      48302.087      291514.32      0.96158705    -68744.441      17024.044     -51720.397    
     13800   13021.915      47230.509      292229.83      0.95923266    -68698.767      16828.78      -51869.987    
     13900   13123.501      47334.67       292939.19      0.95690985    -68977.812      16960.063     -52017.748    
     14000   12979.871      48793.712      293647.87      0.95460049    -68938.817      16774.444     -52164.373    
     14100   12836.142      46123.048      294357.24      0.95229998    -68897.691      16588.698     -52308.993    
     14200   12755.594      45059.134      295062.01      0.95002537    -68933.855      16484.601     -52449.254    
     14300   12692.439      45169.664      295758.97      0.94778663    -68996.504      16402.983     -52593.521    
     14400   12743.275      45765.256      296453.24      0.945567      -69200.311      16468.681     -52731.63     
     14500   12568.581      43552.306      297149.42      0.94335167    -69114.465      16242.917     -52871.548    
     14600   12504.044      44128.929      297848.28      0.94113821    -69171.224      16159.513     -53011.71     
     14700   12416.399      45360.372      298545.71      0.93893963    -69194.94       16046.245     -53148.695    
     14800   12307.854      42125.798      299239.02      0.9367642     -69189.677      15905.968     -53283.709    
     14900   12292.416      40611.804      299929.88      0.93460644    -69305.232      15886.016     -53419.216    
     15000   12169.484      40734.696      300615.89      0.93247365    -69278.734      15727.146     -53551.588    
     15100   12091.073      40806.389      301298.11      0.93036229    -69311.893      15625.812     -53686.08     
     15200   12077.318      42208.311      301979.46      0.92826314    -69426.01       15608.036     -53817.974    
     15300   11951.485      39878.504      302658.78      0.92617962    -69392.408      15445.418     -53946.991    
     15400   11986.86       39763.93       303335.47      0.92411347    -69566.93       15491.134     -54075.796    
     15500   11854.262      37924.995      304011.87      0.9220574     -69524.568      15319.771     -54204.796    
     15600   11821.588      42358.802      304684.65      0.9200214     -69609.024      15277.545     -54331.479    
     15700   11795.876      38056.744      305356.8       0.91799626    -69702.804      15244.317     -54458.487    
     15800   11705.886      39257.434      306024.47      0.91599339    -69710.527      15128.019     -54582.508    
     15900   11541.7        36971.89       306689.63      0.91400676    -69622.913      14915.834     -54707.079    
     16000   11504.52       34878.655      307349.08      0.91204566    -69696.456      14867.785     -54828.671    
     16100   11438.094      35649.858      308005.25      0.91010267    -69730.404      14781.94      -54948.463    
     16200   11384.11       34992.907      308656.24      0.90818316    -69781.088      14712.174     -55068.914    
     16300   11271.095      35286.677      309306.77      0.90627306    -69755.974      14566.12      -55189.854    
     16400   11327.43       36056.25       309958.03      0.90436889    -69947.611      14638.924     -55308.687    
     16500   11221.339      36004.627      310609.24      0.90247283    -69926.594      14501.819     -55424.775    
     16600   11133.2        34079.571      311257.99      0.90059182    -69931.516      14387.912     -55543.604    
     16700   11119.246      33157.732      311904.83      0.89872414    -70026.577      14369.879     -55656.698    
     16800   10905.868      33580.056      312546.78      0.8968782     -69864.502      14094.121     -55770.381    
     16900   10960.755      34036.222      313185.7       0.89504852    -70049.133      14165.054     -55884.079    
     17000   10902.904      33475.384      313821.17      0.8932361     -70088.54       14090.291     -55998.249    
     17100   10789.63       33803.053      314455.13      0.89143529    -70055.482      13943.902     -56111.579    
     17200   10820.639      31547.778      315088.09      0.88964454    -70206.699      13983.976     -56222.723    
     17300   10818.527      31089.408      315719.93      0.88786411    -70314.526      13981.247     -56333.279    
     17400   10800.479      32512.272      316349.24      0.88609791    -70399.53       13957.922     -56441.608    
     17500   10625.384      31892.428      316976.7       0.88434385    -70282.335      13731.64      -56550.695    
     17600   10529.765      30449.289      317601.8       0.88260331    -70264.587      13608.067     -56656.519    
     17700   10509.231      30228.795      318220.63      0.88088695    -70344.018      13581.53      -56762.488    
     17800   10511.992      31266.026      318835.36      0.87918856    -70454.59       13585.099     -56869.491    
     17900   10416.827      30287.685      319449.96      0.87749704    -70437.262      13462.113     -56975.149    
     18000   10443.518      30254.602      320064.59      0.87581196    -70576.808      13496.606     -57080.202    
     18100   10361.225      28624.892      320678.3       0.87413586    -70574.793      13390.255     -57184.538    
     18200   10231.944      28416.956      321290.39      0.87247053    -70508.531      13223.18      -57285.351    
     18300   10148.365      27989.373      321901.6       0.87081393    -70502.376      13115.168     -57387.208    
     18400   10155.801      28404.312      322508.36      0.86917561    -70612.523      13124.778     -57487.745    
     18500   10009.369      28958.688      323111.21      0.86755391    -70523.09       12935.537     -57587.553    
     18600   10040.162      26920.746      323711.52      0.86594507    -70661.668      12975.333     -57686.335    
     18700   9991.6253      26895.678      324309.86      0.86434745    -70696.492      12912.606     -57783.885    
     18800   9947.609       26512.851      324904.35      0.8627659     -70738.715      12855.722     -57882.993    
     18900   9894.8364      26060.395      325496.27      0.86119697    -70766.959      12787.522     -57979.437    
     19000   9833.4472      26902.996      326086.33      0.85963859    -70784.326      12708.186     -58076.14     
     19100   9828.7674      26108.576      326676.41      0.85808584    -70872.688      12702.138     -58170.55     
     19200   9760.6095      25341.372      327265.13      0.85654222    -70880.905      12614.055     -58266.85     
     19300   9698.5714      24980.626      327853.6       0.85500478    -70894.434      12533.88      -58360.554    
     19400   9692.4043      24514.968      328437.52      0.8534847     -70979.706      12525.91      -58453.796    
     19500   9774.966       26078.449      329016.03      0.85198401    -71179.51       12632.608     -58546.902    
     19600   9669.3998      26586.183      329593.34      0.85049169    -71134.26       12496.18      -58638.079    
     19700   9532.9671      24659.623      330171.84      0.84900153    -71050.121      12319.863     -58730.259    
     19800   9462.3188      24237.347      330750.49      0.84751619    -71050.19       12228.561     -58821.63     
     19900   9387.1529      22137.771      331327.24      0.8460409     -71042.784      12131.421     -58911.364    
     20000   9381.0647      23350.736      331898.29      0.84458523    -71124.466      12123.553     -59000.913    
     20100   9446.0927      24142.253      332466.52      0.84314174    -71298.207      12207.591     -59090.616    
     20200   9350.8164      23316.261      333034.64      0.84170342    -71265.234      12084.461     -59180.772    
     20300   9254.5025      23369.93       333604.01      0.84026688    -71227.058      11959.991     -59267.067    
     20400   9232.7068      20456.377      334171         0.83884118    -71286.47       11931.823     -59354.646    
     20500   9158.9161      23805.06       334733.75      0.83743093    -71277.493      11836.46      -59441.033    
     20600   9093.8685      21808.298      335290.72      0.83603984    -71278.77       11752.397     -59526.374    
     20700   9146.3146      22993.702      335843.4       0.83466401    -71432.011      11820.175     -59611.836    
     20800   9130.9296      21344.606      336394.93      0.83329556    -71496.912      11800.292     -59696.62     
     20900   9027.6733      21193.509      336944.69      0.83193595    -71446.632      11666.85      -59779.783    
     21000   8985.1402      21001.685      337491.96      0.83058689    -71473.044      11611.882     -59861.162    
     21100   8966.5231      21483.322      338037.2       0.8292472     -71531.624      11587.823     -59943.801    
     21200   8858.8635      21326.872      338579.28      0.82791954    -71474.958      11448.69      -60026.268    
     21300   8943.0875      20290.053      339123.04      0.82659202    -71664.834      11557.536     -60107.298    
     21400   8823.5753      20892.986      339664.12      0.82527526    -71591.641      11403.085     -60188.556    
     21500   8830.4665      20953.836      340201.93      0.82397062    -71680.256      11411.991     -60268.265    
     21600   8654.1542      20831.253      340739.49      0.8226707     -71532.434      11184.135     -60348.299    
     21700   8697.379       18871.928      341274.98      0.82137986    -71666.237      11239.996     -60426.241    
     21800   8628.1304      19969.408      341809.76      0.82009477    -71656.163      11150.503     -60505.66     
     21900   8699.4901      19660.199      342341.79      0.81882027    -71824.757      11242.725     -60582.033    
     22000   8600.6003      18647.674      342868.63      0.8175621     -71776.221      11114.925     -60661.296    
     22100   8564.8725      20064.604      343394.1       0.81631104    -71806.923      11068.752     -60738.171    
     22200   8492.1344      19945.519      343919.27      0.81506452    -71789.711      10974.75      -60814.961    
     22300   8451.9661      18187.708      344444.3       0.81382213    -71812.494      10922.839     -60889.656    
     22400   8473.9685      18264.189      344966.94      0.81258917    -71917.465      10951.273     -60966.192    
     22500   8455.4581      19596.711      345486.17      0.81136792    -71968.861      10927.352     -61041.51     
     22600   8380.0051      17711.686      346003.82      0.81015406    -71946.558      10829.84      -61116.718    
     22700   8386.2077      19452.942      346519.73      0.80894786    -72027.826      10837.856     -61189.97     
     22800   8284.0012      17071.671      347032.77      0.80775196    -71968.926      10705.77      -61263.156    
     22900   8224.5347      17740.387      347545.3       0.80656074    -71964.022      10628.919     -61335.102    
     23000   8230.2673      17437.931      348054.99      0.80537964    -72044.5        10636.328     -61408.173    
     23100   8155.8157      16385.764      348564.1       0.80420329    -72019.678      10540.111     -61479.568    
     23200   8191.3252      17042.606      349072.37      0.80303232    -72136.998      10586.001     -61550.997    
     23300   8182.2561      18036.045      349579.19      0.80186808    -72195.732      10574.281     -61621.451    
     23400   8082.7199      17294.42       350083.65      0.80071261    -72138.075      10445.646     -61692.429    
     23500   8032.3512      16226.916      350586.88      0.79956329    -72143.549      10380.552     -61762.997    
     23600   8029.8101      15997.538      351087.26      0.79842371    -72209.153      10377.268     -61831.884    
     23700   8051.5655      15032.434      351585.6       0.79729204    -72306.502      10405.384     -61901.118    
     23800   7988.3191      17295.731      352082.55      0.79616669    -72291.612      10323.648     -61967.964    
     23900   7935.0365      16886.271      352580.84      0.79504148    -72291.491      10254.788     -62036.702    
     24000   7956.4696      15511.442      353077.2       0.79392381    -72388.395      10282.487     -62105.908    
     24100   7856.3825      15588.259      353571.19      0.79281459    -72326.298      10153.14      -62173.157    
     24200   7864.3703      16710.79       354062.4       0.79171468    -72404.124      10163.463     -62240.66     
     24300   7841.7078      15404.118      354552.77      0.79061968    -72441.515      10134.176     -62307.339    
     24400   7759.7967      15203.032      355040.73      0.78953308    -72400.906      10028.318     -62372.588    
     24500   7737.9637      14038.764      355527.65      0.78845176    -72438.653      10000.103     -62438.55     
     24600   7728.413       14660.997      356008.89      0.78738594    -72490.996      9987.7599     -62503.236    
     24700   7678.0575      13723.136      356485.07      0.78633419    -72490.904      9922.6833     -62568.22     
     24800   7573.2401      14853.416      356955.74      0.78529735    -72420.138      9787.2233     -62632.915    
     24900   7615.6217      15142.898      357426.1       0.78426392    -72538.942      9841.9949     -62696.947    
     25000   7632.0761      14997.973      357897.08      0.78323187    -72623.121      9863.2595     -62759.861    
     25100   7566.4726      13346.556      358365.13      0.78220891    -72601.695      9778.4774     -62823.217    
     25200   7506.8078      14880.022      358832.42      0.78119028    -72586.131      9701.3699     -62884.761    
     25300   7469.5269      13759.473      359298.82      0.78017623    -72600.34       9653.1903     -62947.149    
     25400   7495.3996      12769.887      359764.16      0.77916711    -72695.615      9686.6267     -63008.988    
     25500   7410.5609      12770.834      360225.92      0.77816831    -72646.762      9576.986      -63069.776    
     25600   7383.0105      13541.463      360682.5       0.77718326    -72672.345      9541.3814     -63130.963    
     25700   7431.8359      13613.976      361138.86      0.77620116    -72795.86       9604.4805     -63191.379    
     25800   7342.2919      13348.098      361597.08      0.77521754    -72740.819      9488.759      -63252.06     
     25900   7383.8087      13845.251      362057.56      0.77423157    -72853.602      9542.4129     -63311.189    
     26000   7253.2163      12843.231      362518.51      0.77324713    -72744.693      9373.6428     -63371.05     
     26100   7278.4806      12956.335      362977.8       0.77226872    -72838.432      9406.293      -63432.139    
     26200   7269.5466      13643.51       363435.52      0.7712961     -72886.705      9394.7471     -63491.958    
     26300   7186.2506      13980.434      363894.77      0.77032269    -72836.883      9287.1001     -63549.782    
     26400   7145.2767      11911.649      364350.25      0.7693597     -72841.307      9234.1478     -63607.159    
     26500   7127.2765      12941.812      364797.82      0.76841577    -72876.363      9210.8854     -63665.477    
     26600   7133.4817      12032.183      365242.48      0.76748027    -72941.328      9218.9046     -63722.423    
     26700   7090.8872      12214.808      365685.04      0.76655144    -72943.514      9163.858      -63779.656    
     26800   7066.4682      12231.67       366126.55      0.76562708    -72967.178      9132.3002     -63834.878    
     26900   7076.8282      12568.324      366564.59      0.76471216    -73037.445      9145.6889     -63891.756    
     27000   7076.6658      12332.924      367002.1       0.76380053    -73092.823      9145.4791     -63947.344    
     27100   7012.5677      11396.998      367438.72      0.76289292    -73066.517      9062.6422     -64003.874    
     27200   6992.1658      11995.269      367872.76      0.76199281    -73095.552      9036.276      -64059.276    
     27300   6961.5318      11056.717      368305.69      0.76109711    -73110.352      8996.6864     -64113.666    
     27400   6941.8993      11699.102      368739.57      0.76020155    -73140.306      8971.3145     -64168.992    
     27500   6877.9374      11786.944      369173.79      0.75930742    -73112.479      8888.6538     -64223.825    
     27600   6873.9185      11344.983      369605.33      0.75842087    -73161.573      8883.4599     -64278.113    
     27700   6823.2906      11486.249      370033.77      0.75754273    -73150.337      8818.0314     -64332.306    
     27800   6815.5958      11061.257      370459.85      0.75667146    -73193.023      8808.0871     -64384.936    
     27900   6777.4963      11435.09       370885.12      0.75580383    -73196.552      8758.8494     -64437.702    
     28000   6812.2241      11260.668      371308.66      0.75494172    -73295.336      8803.7297     -64491.606    
     28100   6678.0586      9298.2933      371732.57      0.7540808     -73172.989      8630.3418     -64542.647    
     28200   6718.6586      10453.356      372153.61      0.75322767    -73277.536      8682.811      -64594.725    
     28300   6690.5731      10352.751      372571.28      0.75238326    -73293.013      8646.5149     -64646.499    
     28400   6635.8439      9906.3068      372984.88      0.75154896    -73274.844      8575.7859     -64699.058    
     28500   6665.544       10311.372      373396.37      0.75072073    -73364.045      8614.1686     -64749.876    
     28600   6573.4272      9057.9949      373805.13      0.74989981    -73293.703      8495.1221     -64798.581    
     28700   6633.6534      11219.037      374209.14      0.74909019    -73423.623      8572.9551     -64850.668    
     28800   6542.465       9827.8162      374613.98      0.74828066    -73355.534      8455.1084     -64900.425    
     28900   6637.1794      10685.485      375018.36      0.7474738     -73527.906      8577.5119     -64950.394    
     29000   6576.0175      10640.644      375421.03      0.74667207    -73497.263      8498.4698     -64998.793    
     29100   6535.0585      9766.41        375826.28      0.74586693    -73494.815      8445.5366     -65049.278    
     29200   6540.3281      9887.9744      376230.73      0.74506513    -73549.955      8452.3468     -65097.608    
     29300   6487.5223      10568.088      376631.04      0.74427322    -73530.387      8384.1036     -65146.283    
     29400   6459.6493      9451.6233      377029.43      0.74348678    -73542.05       8348.0821     -65193.968    
     29500   6397.398       9156.0421      377426.12      0.74270535    -73508.687      8267.6321     -65241.055    
     29600   6377.3211      9055.6924      377818.82      0.7419334     -73531.636      8241.6858     -65289.95     
     29700   6344.0635      8152.2222      378206.98      0.74117193    -73538.184      8198.7056     -65339.478    
     29800   6328.213       8245.2747      378593.76      0.74041473    -73565.511      8178.2213     -65387.29     
     29900   6316.4123      9363.942       378980.47      0.73965921    -73596.463      8162.9708     -65433.492    
     30000   6296.2913      7864.8139      379362.66      0.73891405    -73615.826      8136.9675     -65478.858    
     30100   6268.5322      8984.9499      379739.68      0.73818042    -73627.043      8101.0933     -65525.95     
     30200   6183.3363      9499.7004      380115.17      0.73745122    -73562.282      7990.9909     -65571.291    
     30300   6274.7031      8114.8161      380490.64      0.7367235     -73726.549      8109.0682     -65617.481    
     30400   6267.3451      9244.4979      380870.28      0.73598916    -73763.855      8099.5591     -65664.296    
     30500   6246.0172      7096.9214      381251.01      0.73525417    -73782.975      8071.9962     -65710.978    
     30600   6220.9135      8814.3413      381629.34      0.73452528    -73795.14       8039.5536     -65755.586    
     30700   6184.2322      7451.7317      382008.07      0.73379706    -73791.297      7992.1487     -65799.148    
     30800   6124.8932      9994.0041      382385.72      0.73307235    -73759.946      7915.4624     -65844.483    
     30900   6098.811       8258.2783      382761.86      0.73235197    -73770.728      7881.7553     -65888.973    
     31000   6075.2457      8173.6238      383137.08      0.73163474    -73784.568      7851.3008     -65933.268    
     31100   6097.6152      8254.342       383510.34      0.73092265    -73856.794      7880.2099     -65976.584    
     31200   6090.5138      9397.9168      383880.65      0.73021757    -73891.963      7871.0324     -66020.931    
     31300   6005.5035      8936.8139      384252.1       0.72951169    -73825.039      7761.17       -66063.869    
     31400   6011.4977      7246.6179      384622.42      0.72880931    -73876.468      7768.9166     -66107.552    
     31500   6038.9661      7831.4048      384988.03      0.72811717    -73954.309      7804.4151     -66149.894    
     31600   6000.1441      6998.7366      385353.69      0.72742627    -73946.901      7754.2438     -66192.658    
     31700   5965.2561      6671.67        385717.11      0.72674089    -73943.701      7709.1566     -66234.545    
     31800   6000.793       7451.4198      386078.21      0.72606116    -74033.154      7755.0824     -66278.071    
     31900   5947.3283      8416.2438      386438.43      0.72538437    -74007.852      7685.9876     -66321.864    
     32000   5948.6442      8019.1332      386800.94      0.72470454    -74050.769      7687.6883     -66363.08     
     32100   5966.9357      6093.9401      387162.52      0.72402772    -74116.082      7711.3272     -66404.755    
     32200   5890.2792      7946.3736      387521.57      0.72335689    -74057.806      7612.2607     -66445.546    
     32300   5864.1091      6172.7001      387880.89      0.7226868     -74065.281      7578.44       -66486.841    
     32400   5930.5626      5885.9243      388236.34      0.72202513    -74193.937      7664.3206     -66529.616    
     32500   5835.1474      7875.6432      388591.64      0.72136498    -74110.763      7541.0115     -66569.751    
     32600   5844.3151      7326.0271      388947.42      0.72070513    -74164.742      7552.8594     -66611.883    
     32700   5813.7985      7394.6754      389300.89      0.72005076    -74166.351      7513.4214     -66652.929    
     32800   5772.4803      7679.0111      389649.45      0.71940662    -74152.521      7460.0241     -66692.497    
     32900   5740.165       6200.2755      389996.23      0.71876694    -74148.843      7418.2617     -66730.581    
     33000   5706.1522      6036.4487      390336.37      0.71814061    -74145.505      7374.3054     -66771.199    
     33100   5719.3475      6141.9581      390672.21      0.71752326    -74201.01       7391.3584     -66809.652    
     33200   5667.8645      6028.2277      391005.91      0.71691089    -74173.751      7324.8246     -66848.926    
     33300   5620.0911      6542.289       391338.81      0.71630105    -74151.148      7263.0849     -66888.063    
     33400   5650.9723      5954.2884      391670.78      0.71569392    -74229.39       7302.9941     -66926.395    
     33500   5617.9578      6166.8191      392003.17      0.71508708    -74225.607      7260.328      -66965.279    
     33600   5623.6699      6466.8732      392334.02      0.71448405    -74272.364      7267.7101     -67004.654    
     33700   5623.8329      6945.1996      392666.99      0.71387819    -74312.524      7267.9207     -67044.603    
     33800   5573.1098      5771.4764      392999.79      0.71327365    -74283.918      7202.3691     -67081.549    
     33900   5656.6042      6845.351       393333.17      0.7126691     -74430.502      7310.2724     -67120.23     
     34000   5634.2013      6255.5133      393667.59      0.71206369    -74440.383      7281.3203     -67159.063    
     34100   5586.1515      8047.1794      394001.06      0.71146103    -74416.431      7219.2234     -67197.208    
     34200   5533.0002      4475.7795      394338.39      0.71085242    -74383.501      7150.5337     -67232.968    
     34300   5500.5297      6377.0147      394671.44      0.71025255    -74377.941      7108.5706     -67269.37     
     34400   5477.3754      6568.2774      395000.81      0.70966032    -74385.996      7078.6473     -67307.348    
     34500   5445.7587      5609.5518      395328.74      0.70907163    -74380.517      7037.7878     -67342.729    
     34600   5476.8791      5366.3124      395652.4       0.70849158    -74456.877      7078.0059     -67378.871    
     34700   5489.4746      6395.1825      395971.95      0.70791983    -74510.003      7094.2836     -67415.72     
     34800   5424.1104      5726.1079      396287.1       0.70735686    -74462.436      7009.8108     -67452.626    
     34900   5451.5232      5864.8381      396600.17      0.70679847    -74533.732      7045.2374     -67488.494    
     35000   5427.2118      5587.0742      396912.74      0.70624187    -74537.569      7013.8187     -67523.751    
     35100   5386.1539      6378.884       397223.7       0.70568901    -74520.991      6960.7579     -67560.233    
     35200   5326.2101      4555.6918      397535.48      0.70513555    -74478.956      6883.2899     -67595.666    
     35300   5385.0545      6282.798       397844.37      0.70458807    -74591.45       6959.3371     -67632.113    
     35400   5338.8616      4879.6175      398154.43      0.70403938    -74567.526      6899.6401     -67667.886    
     35500   5349.8222      5918.2528      398464.66      0.70349124    -74616.455      6913.8049     -67702.65     
     35600   5332.6979      4863.54        398771.5       0.70294993    -74629.067      6891.6744     -67737.393    
     35700   5290.522       6036.1673      399075.69      0.70241411    -74607.805      6837.1686     -67770.636    
     35800   5251.9803      4939.3678      399378.7       0.70188119    -74591.308      6787.3595     -67803.949    
     35900   5251.9937      4266.8572      399679.08      0.70135369    -74625.59       6787.3769     -67838.213    
     36000   5233.1055      6341.1823      399974.47      0.70083572    -74635.398      6762.9669     -67872.431    
     36100   5214.0118      4008.6227      400268.3       0.70032126    -74642.987      6738.2913     -67904.696    
     36200   5183.4636      4759.4168      400557.95      0.69981485    -74637.224      6698.8126     -67938.411    
     36300   5248.857       5807.0324      400845.11      0.6993135     -74755.854      6783.3232     -67972.531    
     36400   5163.3221      4623.6798      401134.45      0.69880908    -74678.545      6672.7828     -68005.762    
     36500   5108.4285      3939.9056      401422.52      0.69830759    -74640.446      6601.8415     -68038.605    
     36600   5184.0633      4346.3515      401707.52      0.69781217    -74771.416      6699.5875     -68071.829    
     36700   5134.0112      3648.5556      401990.62      0.69732074    -74740.45       6634.9031     -68105.547    
     36800   5160.5362      5193.256       402273.67      0.69683008    -74807.425      6669.1825     -68138.242    
     36900   5118.2714      4934.8695      402556.06      0.69634127    -74785.744      6614.5618     -68171.183    
     37000   5135.5019      4896.7601      402840.15      0.69585019    -74841.139      6636.8296     -68204.309    
     37100   5080.7136      4114.6962      403122.56      0.69536272    -74801.186      6566.0243     -68235.161    
     37200   5082.9478      5845.4206      403401.76      0.69488145    -74835.543      6568.9116     -68266.632    
     37300   5097.6925      4708.5069      403676.99      0.69440766    -74886.709      6587.9668     -68298.742    
     37400   5091.9866      4154.3443      403950.88      0.69393684    -74910.905      6580.5929     -68330.312    
     37500   5062.1396      4470.3283      404224.66      0.69346684    -74904.096      6542.0203     -68362.075    
     37600   4998.2838      3655.7653      404496.35      0.69300105    -74852.657      6459.4967     -68393.16     
     37700   5099.8115      4787.8099      404765.49      0.69254026    -75015.539      6590.7053     -68424.834    
     37800   5008.1877      4047.8624      405032.95      0.69208295    -74927.54       6472.296      -68455.244    
     37900   5003.1944      4187.6057      405298.81      0.69162897    -74952.228      6465.8429     -68486.385    
     38000   5019.5086      4102.5807      405563.97      0.69117677    -75005.061      6486.9265     -68518.134    
     38100   4984.9517      3953.6508      405828.75      0.69072582    -74990.328      6442.2671     -68548.061    
     38200   4993.4517      5599.1831      406090.82      0.69028006    -75030.821      6453.252      -68577.569    
     38300   4997.6967      3421.282       406353.61      0.68983365    -75067.414      6458.7381     -68608.676    
     38400   4951.1706      3986.1168      406617.7       0.68938563    -75037.742      6398.6103     -68639.131    
     38500   4928.7411      3987.5341      406879.65      0.68894179    -75039.483      6369.6237     -68669.859    
     38600   4972.8996      4466.7612      407141.4       0.68849887    -75127.528      6426.6916     -68700.837    
     38700   4887.8156      3512.2         407403.7       0.6880556     -75047.642      6316.7339     -68730.908    
     38800   4874.0198      4444.4425      407664.11      0.68761607    -75059.889      6298.905      -68760.984    
     38900   4866.6564      3605.7597      407921.89      0.68718155    -75081.427      6289.389      -68792.038    
     39000   4892.0372      4877.0378      408180.11      0.68674683    -75144.171      6322.1898     -68821.981    
     39100   4918.0468      3305.7862      408440.23      0.68630946    -75207.023      6355.803      -68851.22     
     39200   4863.6972      4271.9264      408702.21      0.68586954    -75165.873      6285.5647     -68880.308    
     39300   4828.6729      3603.0683      408963.44      0.68543143    -75149.285      6240.3012     -68908.984    
     39400   4807.5366      2355.7984      409222.01      0.68499834    -75149.87       6212.986      -68936.884    
     39500   4810.7472      3302.8985      409479.65      0.68456735    -75182.131      6217.1351     -68964.996    
     39600   4825.4299      4362.5597      409734.4       0.68414172    -75230.016      6236.1103     -68993.906    
     39700   4831.723       3544.5009      409988.18      0.68371824    -75266.722      6244.243      -69022.479    
     39800   4749.4262      3906.9595      410237.08      0.68330341    -75187.945      6137.8874     -69050.058    
     39900   4773.1605      3480.0073      410483.14      0.68289381    -75248.418      6168.5602     -69079.858    
     40000   4757.5629      3206.452       410729.58      0.68248408    -75255.788      6148.4028     -69107.385    
     40100   4729.5802      3117.2558      410976.93      0.68207332    -75247.307      6112.2395     -69135.068    
     40200   4704.6353      3182.0581      411221.63      0.68166745    -75242.688      6080.0022     -69162.686    
     40300   4730.9962      3511.3877      411462.65      0.68126814    -75306.602      6114.0695     -69192.532    
     40400   4700.9371      2771.3118      411704.27      0.68086833    -75293.616      6075.2228     -69218.393    
     40500   4690.6472      3384.7907      411942.1       0.68047524    -75307.516      6061.9247     -69245.591    
     40600   4682.0204      3497.7941      412178.94      0.68008423    -75324.513      6050.7759     -69273.737    
     40700   4667.7305      3052.65        412416.8       0.679692      -75333.064      6032.3085     -69300.755    
     40800   4686.3195      3801.6674      412651.35      0.67930566    -75383.803      6056.3319     -69327.471    
     40900   4656.2552      3190.3079      412885.15      0.678921      -75372.32       6017.4784     -69354.841    
     41000   4686.4142      3690.8328      413118.52      0.67853748    -75439.56       6056.4543     -69383.106    
     41100   4616.0757      2752.617       413351.54      0.67815496    -75374.527      5965.5529     -69408.974    
     41200   4590.1316      2165.9937      413583.62      0.67777441    -75367.331      5932.0241     -69435.307    
     41300   4623.7123      2482.0139      413809.44      0.67740455    -75437.726      5975.4219     -69462.304    
     41400   4565.6653      3215.0217      414030.76      0.67704245    -75389.628      5900.4052     -69489.223    
     41500   4613.0264      3832.4384      414251.42      0.6766818     -75477.165      5961.6121     -69515.553    
     41600   4602.8921      1918.6618      414473.85      0.67631866    -75489.956      5948.515      -69541.441    
     41700   4614.1715      3292.4754      414696.56      0.67595545    -75530.881      5963.0919     -69567.789    
     41800   4631.2882      2061.1019      414917.81      0.67559499    -75579.302      5985.2126     -69594.09     
     41900   4563.2506      2534.1038      415139.65      0.67523399    -75517.454      5897.2847     -69620.169    
     42000   4545.0476      2958.2782      415359.39      0.67487676    -75519.804      5873.7601     -69646.044    
     42100   4539.3838      3063.3069      415574.54      0.67452735    -75538.278      5866.4406     -69671.837    
     42200   4528.6285      3037.6035      415789.71      0.6741783     -75549.477      5852.541      -69696.936    
     42300   4522.5879      3355.6769      416002.5       0.67383344    -75566.664      5844.7345     -69721.93     
     42400   4505.4604      2985.9477      416215.27      0.67348898    -75570.401      5822.5999     -69747.801    
     42500   4509.4877      2549.991       416426.57      0.67314724    -75602.114      5827.8045     -69774.31     
     42600   4491.2584      3069.5156      416636.95      0.67280734    -75602.743      5804.246      -69798.497    
     42700   4473.6018      2788.2518      416849         0.67246509    -75603.81       5781.4277     -69822.383    
     42800   4478.2859      2877.3928      417062.36      0.67212106    -75635.94       5787.4812     -69848.459    
     42900   4480.8824      3250.9315      417274.96      0.67177862    -75664.549      5790.8367     -69873.712    
     43000   4441.8433      2784.8754      417488.37      0.67143522    -75638.453      5740.3848     -69898.068    
     43100   4446.2639      1704.1218      417702.24      0.67109145    -75669.517      5746.0978     -69923.419    
     43200   4430.4204      2154.2911      417911.65      0.67075516    -75673.011      5725.6224     -69947.389    
     43300   4413.9159      3492.693       418117.89      0.6704243     -75676.664      5704.2931     -69972.371    
     43400   4424.9976      2419.2937      418321.69      0.67009769    -75716.991      5718.6144     -69998.376    
     43500   4417.7175      3245.6333      418524.93      0.66977228    -75732.942      5709.2059     -70023.736    
     43600   4427.3846      2649.0612      418730.79      0.669443      -75769.258      5721.6992     -70047.559    
     43700   4404.2626      2464.6625      418937.42      0.66911282    -75762.717      5691.8176     -70070.9      
     43800   4404.4764      2234.1254      419142.74      0.66878504    -75786.585      5692.0939     -70094.491    
     43900   4358.4039      2839.1001      419345.95      0.66846096    -75749.849      5632.5525     -70117.296    
     44000   4337.3327      3368.9291      419545.44      0.66814311    -75746.759      5605.3212     -70141.438    
     44100   4340.0578      2343.7545      419740.65      0.66783238    -75773.806      5608.843      -70164.963    
     44200   4365.231       1967.7242      419934.8       0.66752362    -75830.477      5641.3754     -70189.102    
     44300   4279.4094      2546.9806      420129.39      0.66721445    -75742.901      5530.4645     -70212.437    
     44400   4330.9041      2340.3932      420322.1       0.66690855    -75832.338      5597.0133     -70235.325    
     44500   4279.5294      1311.2934      420516.55      0.66660015    -75789.791      5530.6196     -70259.171    
     44600   4270.4232      2329.231       420706.72      0.66629883    -75799.985      5518.8513     -70281.134    
     44700   4247.7478      2113.6278      420892.26      0.66600511    -75793.239      5489.5468     -70303.692    
     44800   4265.4105      1987.9971      421076.11      0.66571432    -75839.984      5512.3731     -70327.611    
     44900   4266.5882      2206.5908      421260.35      0.66542317    -75863.452      5513.8951     -70349.557    
     45000   4209.5239      1268.2719      421444.8       0.66513195    -75812.176      5440.1485     -70372.027    
     45100   4293.909       2867.9257      421623.84      0.66484949    -75944.665      5549.2029     -70395.462    
     45200   4257.3463      1786.178       421804.59      0.66456459    -75920.018      5501.9514     -70418.067    
     45300   4261.6864      2032.2938      421986.5       0.66427811    -75947.736      5507.5603     -70440.176    
     45400   4194.8247      1276.9478      422165.72      0.66399612    -75882.392      5421.1521     -70461.24     
     45500   4227.7829      1348.4622      422341.22      0.6637202     -75947.217      5463.7454     -70483.471    
     45600   4213.6277      2035.1547      422513.99      0.6634488     -75952.588      5445.4519     -70507.136    
     45700   4190.4145      2069.1532      422686.66      0.66317778    -75944.537      5415.4526     -70529.084    
     45800   4192.9364      2056.568       422860.98      0.66290439    -75970.529      5418.7118     -70551.817    
     45900   4195.2345      2317.209       423036.1       0.66262997    -75995.839      5421.6816     -70574.157    
     46000   4160.5478      1430.3826      423213.78      0.66235178    -75973.124      5376.8546     -70596.269    
     46100   4177.3516      1509.5289      423390.59      0.66207517    -76016.174      5398.5707     -70617.603    
     46200   4137.4072      1556.5401      423566.09      0.66180085    -75986.132      5346.9489     -70639.183    
     46300   4185.1312      2472.0332      423739.7       0.6615297     -76070.913      5408.6247     -70662.289    
     46400   4194.6417      2461.6993      423914.21      0.66125738    -76104.678      5420.9155     -70683.763    
     46500   4151.4013      1806.4289      424088.22      0.66098605    -76069.93       5365.0341     -70704.896    
     46600   4121.7376      1265.0607      424261.06      0.66071677    -76052.033      5326.6984     -70725.335    
     46700   4146.0936      1975.8169      424431.65      0.66045122    -76105.373      5358.1748     -70747.198    
     46800   4187.4589      1856.1268      424601.82      0.66018651    -76179.666      5411.6329     -70768.033    
     46900   4155.7301      1161.3712      424771.4       0.65992295    -76160.448      5370.6284     -70789.819    
     47000   4146.9038      2184.1835      424938.81      0.65966297    -76170.18       5359.2218     -70810.959    
     47100   4118.7674      1838.062       425107.37      0.6594014     -76154.386      5322.8599     -70831.526    
     47200   4057.135       989.35918      425276.2       0.65913964    -76094.49       5243.2097     -70851.281    
     47300   4060.109       1952.357       425443.74      0.65888006    -76119.407      5247.0532     -70872.354    
     47400   4107.1199      2178.5363      425609.14      0.658624      -76201.42       5307.8074     -70893.612    
     47500   4072.9212      1183.6164      425774.12      0.6583688     -76176.718      5263.6109     -70913.107    
     47600   4052.9977      1963.562       425939.42      0.65811329    -76172.211      5237.8629     -70934.348    
     47700   4069.1601      2015.3014      426104.73      0.65785797    -76214.2        5258.7503     -70955.449    
     47800   4057.6958      1614.9467      426268.08      0.65760588    -76219.545      5243.9344     -70975.61     
     47900   4070.7037      2535.9693      426429.39      0.65735713    -76256.377      5260.7452     -70995.632    
     48000   4044.5772      1592.0629      426591.67      0.65710706    -76242.165      5226.9807     -71015.184    
     48100   4043.9085      1780.6737      426750.99      0.65686173    -76262.133      5226.1165     -71036.017    
     48200   4021.0212      1785.9567      426908.18      0.65661987    -76252.306      5196.5383     -71055.768    
     48300   3976.3593      1638.9687      427063.69      0.65638078    -76214.366      5138.8199     -71075.546    
     48400   4000.474       1874.756       427216.51      0.65614598    -76265.936      5169.9843     -71095.952    
     48500   4028.7679      1801.5566      427369         0.65591187    -76322.597      5206.5498     -71116.047    
     48600   4028.608       2001.3033      427522.9       0.65567575    -76342.142      5206.343      -71135.799    
     48700   3966.7018      1449.6277      427677.61      0.65543856    -76282.082      5126.339      -71155.743    
     48800   4016.3899      847.85813      427829.65      0.65520563    -76365.452      5190.5531     -71174.899    
     48900   3997.948       1578.6216      427979.11      0.65497682    -76361.215      5166.7198     -71194.495    
     49000   3980.9838      1869.3559      428127.91      0.65474918    -76358.54       5144.7963     -71213.743    
     49100   3984.869       1308.3706      428278.02      0.6545197     -76383.019      5149.8173     -71233.202    
     49200   3939.4188      992.26331      428428.27      0.65429016    -76344.067      5091.0801     -71252.987    
     49300   3954.4585      1350.2912      428575.94      0.6540647     -76382.386      5110.5165     -71271.869    
     49400   3886.2241      964.85204      428721.89      0.65384205    -76313.43       5022.3342     -71291.096    
     49500   3911.8426      853.3151       428864.24      0.65362502    -76366.007      5055.4421     -71310.565    
     49600   3885.1537      1237.8185      429003.59      0.65341271    -76350.352      5020.951      -71329.401    
     49700   3922.9338      1553.0886      429141.46      0.65320279    -76418.825      5069.7758     -71349.049    
     49800   3936.0087      2103.5318      429279.52      0.6529927     -76453.334      5086.673      -71366.661    
     49900   3905.4088      1400.86        429418.5       0.65278137    -76431.954      5047.1274     -71384.827    
     50000   3881.4582      1128.011       429558.42      0.65256873    -76420.21       5016.1751     -71404.035    
     50100   3881.2659      813.237        429698.23      0.65235641    -76437.927      5015.9266     -71422        
     50200   3899.7254      1411.0835      429837.25      0.65214543    -76481.401      5039.7826     -71441.619    
     50300   3909.8345      1711.4923      429976.51      0.65193422    -76512.949      5052.847      -71460.102    
     50400   3860.5024      1235.2078      430114.73      0.65172471    -76467.277      4989.093      -71478.184    
     50500   3897.8632      1578.3253      430249.09      0.65152119    -76533.605      5037.3759     -71496.229    
     50600   3872.2142      1121.4556      430382.68      0.65131896    -76520.063      5004.2286     -71515.835    
     50700   3849.202       222.68387      430514.88      0.65111895    -76509.211      4974.489      -71534.722    
     50800   3856.2468      1486.6732      430646.68      0.65091967    -76537.123      4983.5933     -71553.529    
     50900   3834.9325      1382.2434      430778.31      0.65072078    -76526.816      4956.0479     -71570.768    
     51000   3855.5424      1098.746       430909.45      0.65052275    -76572.161      4982.683      -71589.478    
     51100   3847.0118      1732.4224      431041.88      0.65032288    -76580.265      4971.6585     -71608.607    
     51200   3853.7882      1024.5446      431171.57      0.65012728    -76607.311      4980.416      -71626.895    
     51300   3843.9026      1009.8343      431298.29      0.64993626    -76611.811      4967.6403     -71644.17     
     51400   3836.4712      1168.7856      431423.56      0.64974753    -76620.591      4958.0365     -71662.554    
     51500   3855.1588      2353.0619      431549.26      0.64955829    -76663.108      4982.1872     -71680.921    
     51600   3805.2927      1023.1004      431677.76      0.64936493    -76615.894      4917.7431     -71698.151    
     51700   3861.2767      1453.5712      431804.68      0.64917407    -76705.74       4990.0936     -71715.646    
     51800   3833.6545      722.71602      431931.13      0.64898402    -76688.053      4954.3963     -71733.657    
     51900   3846.08        958.68842      432055.79      0.64879676    -76720.56       4970.4542     -71750.106    
     52000   3792.3182      1202.5856      432176         0.6486163     -76668.239      4900.9756     -71767.263    
     52100   3827.1208      1443.9462      432292.79      0.64844107    -76730.851      4945.9525     -71784.898    
     52200   3772.6078      505.68237      432411.2       0.6482635     -76677.217      4875.5031     -71801.714    
     52300   3788.2218      805.92182      432527.68      0.64808892    -76713.597      4895.6816     -71817.915    
     52400   3752.6892      1302.9104      432644.59      0.64791379    -76685.082      4849.7614     -71835.321    
     52500   3741.357       1119.2124      432760.58      0.64774014    -76688.611      4835.1163     -71853.495    
     52600   3773.5965      967.71868      432875.18      0.64756865    -76747.162      4876.7808     -71870.381    
     52700   3743.0417      631.60127      432989.47      0.64739773    -76724.159      4837.2935     -71886.866    
     52800   3747.0819      892.71077      433101.67      0.64723       -76746.515      4842.5148     -71904        
     52900   3728.9911      375.40135      433211.48      0.64706594    -76740.146      4819.1353     -71921.01     
     53000   3744.2986      14.437244      433321.09      0.64690228    -76776.975      4838.9179     -71938.058    
     53100   3728.632       1586.0463      433425.49      0.64674645    -76773.874      4818.6712     -71955.203    
     53200   3706.8285     -76.273205      433528.26      0.64659313    -76762.069      4790.4937     -71971.575    
     53300   3754.9837      1296.2656      433628.78      0.64644325    -76841.643      4852.7267     -71988.916    
     53400   3728.1812      1846.0646      433730.18      0.64629213    -76825.043      4818.0886     -72006.955    
     53500   3768.6274      787.17302      433835.37      0.64613541    -76893.682      4870.359      -72023.323    
     53600   3723.8287      1200.0285      433937.45      0.64598342    -76851.982      4812.4637     -72039.518    
     53700   3726.0681      434.90126      434040.22      0.64583047    -76872.012      4815.3578     -72056.655    
     53800   3710.0708      655.15057      434144.64      0.64567513    -76867.185      4794.6837     -72072.501    
     53900   3654.1978      69.18117       434249.91      0.64551861    -76810.938      4722.4766     -72088.461    
     54000   3670.4829      905.21614      434352.6       0.645366      -76849.232      4743.5226     -72105.709    
     54100   3693.5959      855.14742      434454.3       0.64521493    -76895.118      4773.3926     -72121.725    
     54200   3669.5744      351.92993      434557.65      0.64506147    -76879.611      4742.3486     -72137.262    
     54300   3660.2436      879.64865      434661.12      0.64490792    -76883.684      4730.29       -72153.394    
     54400   3625.7322      524.82692      434765.43      0.64475319    -76855.064      4685.6894     -72169.375    
     54500   3643.0908      107.35452      434868.75      0.64460001    -76894.111      4708.1226     -72185.989    
     54600   3662.5349      1757.5295      434971.57      0.64444763    -76934.995      4733.2511     -72201.744    
     54700   3648.5961      532.52173      435074.6       0.64429502    -76932.867      4715.2374     -72217.63     
     54800   3610.4183      940.53145      435173.59      0.64414845    -76899.077      4665.8986     -72233.179    
     54900   3636.6628      534.5601       435270.26      0.6440054     -76947.847      4699.8154     -72248.032    
     55000   3626.6081      1146.4094      435368.35      0.6438603     -76950.562      4686.8213     -72263.741    
     55100   3631.2192     -48.515459      435466.54      0.64371513    -76971.082      4692.7805     -72278.302    
     55200   3629.6767     -169.91652      435562.27      0.64357364    -76985.202      4690.787      -72294.415    
     55300   3610.2616      1225.0804      435656.69      0.64343417    -76976.116      4665.696      -72310.42     
     55400   3630.9519      1481.4368      435749.9       0.64329652    -77019.219      4692.435      -72326.784    
     55500   3611.7224     -166.19089      435841.81      0.64316087    -77009.579      4667.5838     -72341.995    
     55600   3585.4792      852.34526      435930.82      0.64302954    -76991.172      4633.6686     -72357.503    
     55700   3613.4815      142.75415      436020.19      0.64289774    -77042.881      4669.8572     -72373.024    
     55800   3571.2804      1446.5188      436107.8       0.64276859    -77003.946      4615.3189     -72388.627    
     55900   3569.5116      1469.3227      436196.99      0.64263717    -77016.928      4613.033      -72403.895    
     56000   3550.2565      814.37049      436286.44      0.64250541    -77007.084      4588.1489     -72418.935    
     56100   3566.4201      726.62624      436372.78      0.64237829    -77042.726      4609.0378     -72433.688    
     56200   3587.143       257.86512      436457.99      0.64225287    -77084.319      4635.8189     -72448.5      
     56300   3542.8135     -474.33966      436539.88      0.64213238    -77041.363      4578.53       -72462.833    
     56400   3551.3705      603.33589      436620.01      0.64201454    -77067.076      4589.5886     -72477.488    
     56500   3512.5776      347.23669      436698.55      0.64189907    -77030.004      4539.4548     -72490.549    
     56600   3516.3261      414.51331      436775.6       0.64178585    -77050.234      4544.2991     -72505.935    
     56700   3590.9126      778.18874      436849.55      0.64167721    -77161.241      4640.6906     -72520.551    
     56800   3559.1848      1202.6136      436923.94      0.64156795    -77134.945      4599.6873     -72535.258    
     56900   3534.0431      380.49752      436999.66      0.64145678    -77117.261      4567.1956     -72550.065    
     57000   3539.3797      469.51773      437073.98      0.64134771    -77138.344      4574.0923     -72564.251    
     57100   3528.1413      449.58236      437147.25      0.64124022    -77137.828      4559.5685     -72578.26     
     57200   3498.8147      673.48328      437218.35      0.64113594    -77113.81       4521.6684     -72592.142    
     57300   3490.6909     -220.75123      437286.28      0.64103634    -77117.034      4511.1697     -72605.864    
     57400   3477.1907      589.32275      437351.08      0.64094137    -77114.941      4493.7228     -72621.218    
     57500   3475.0575     -240.76443      437414.6       0.64084828    -77126.379      4490.9659     -72635.413    
     57600   3481.7376      1239.3181      437478.11      0.64075526    -77149.648      4499.5989     -72650.049    
     57700   3502.8459      297.19304      437541.7       0.64066213    -77191.233      4526.8781     -72664.355    
     57800   3489.8948      1044.6787      437606.6       0.64056712    -77188.801      4510.1408     -72678.66     
     57900   3518.2082      559.00911      437670.72      0.64047328    -77238.559      4546.7315     -72691.828    
     58000   3535.4572      1657.2851      437737.69      0.64037528    -77275.104      4569.0231     -72706.081    
     58100   3492.1304     -485.61516      437807.26      0.64027352    -77232.942      4513.03       -72719.912    
     58200   3467.609       99.035932      437874.84      0.64017471    -77216.935      4481.3399     -72735.595    
     58300   3442.7692      543.62201      437946.38      0.64007013    -77198.036      4449.2384     -72748.797    
     58400   3454.7078      367.34239      438016         0.6399684     -77227.076      4464.6671     -72762.409    
     58500   3486.7598      535.41882      438079.41      0.63987576    -77282.189      4506.0894     -72776.1      
     58600   3472.205      -10.621312      438141.03      0.63978578    -77277.628      4487.2796     -72790.349    
     58700   3487.771       1060.0197      438201.5       0.63969748    -77311.394      4507.3962     -72803.998    
     58800   3461.3388      271.38264      438262.83      0.63960797    -77290.375      4473.2368     -72817.138    
     58900   3402.139       370.75262      438324.91      0.63951738    -77227.708      4396.7302     -72830.978    
     59000   3495.3593      1657.3636      438383.23      0.6394323     -77361.367      4517.2029     -72844.164    
     59100   3441.7806      7.3324066      438442.56      0.63934577    -77306.049      4447.9608     -72858.088    
     59200   3435.645       170.05718      438499.76      0.63926237    -77310.77       4440.0316     -72870.738    
     59300   3452.6971      344.3419       438558.56      0.63917666    -77346.466      4462.0686     -72884.398    
     59400   3478.9192      1012.9018      438618.99      0.6390886     -77394.05       4495.9566     -72898.093    
     59500   3411.6069      165.05757      438684.13      0.6389937     -77320.429      4408.966      -72911.463    
     59600   3430.1317      155.49809      438748.59      0.63889982    -77358.065      4432.9064     -72925.158    
     59700   3396.4831      119.59578      438812.72      0.63880645    -77327.392      4389.4209     -72937.971    
     59800   3452.9679      1144.3285      438875.43      0.63871518    -77413.844      4462.4186     -72951.426    
     59900   3388.5844     -874.48008      438938.66      0.63862317    -77342.298      4379.2131     -72963.085    
     60000   3413.5208      594.14011      438996.48      0.63853906    -77388.353      4411.4394     -72976.914    
     60100   3361.2017      264.08944      439051.38      0.63845922    -77334.12       4343.8252     -72990.295    
     60200   3448.7703      427.86658      439105.73      0.63838018    -77461.96       4456.9939     -73004.966    
     60300   3420.7935      384.77527      439161.88      0.63829856    -77438.978      4420.8384     -73018.14     
     60400   3434.0897      328.47589      439219.43      0.63821492    -77468.927      4438.0215     -73030.905    
     60500   3373.4482      100.44503      439278.42      0.63812922    -77402.641      4359.6519     -73042.989    
     60600   3382.1776     -131.1264       439336.18      0.63804532    -77427.446      4370.9333     -73056.513    
     60700   3394.576       373.37854      439392.53      0.63796351    -77456.288      4386.9563     -73069.332    
     60800   3399.9528      574.9859       439445.9       0.63788603    -77477.009      4393.9049     -73083.104    
     60900   3373.1297      1246.1293      439498.7       0.63780938    -77454.958      4359.2404     -73095.718    
     61000   3365.9546      139.61691      439551.23      0.63773317    -77457.778      4349.9677     -73107.81     
     61100   3348.2766      63.604072      439601.33      0.63766049    -77446.65       4327.1217     -73119.529    
     61200   3383.0117      381.16881      439645.47      0.63759647    -77504.329      4372.0112     -73132.317    
     61300   3388.8078      252.46877      439685.86      0.63753789    -77523.817      4379.5018     -73144.315    
     61400   3394.1059      523.98235      439726.6       0.63747883    -77543.832      4386.3487     -73157.484    
     61500   3376.0566     -367.52285      439767.72      0.63741922    -77533.447      4363.0229     -73170.424    
     61600   3387.3151     -86.567387      439808.01      0.63736083    -77560.587      4377.5727     -73183.015    
     61700   3345.1769      1638.7479      439850.6       0.63729911    -77518.568      4323.1158     -73195.452    
     61800   3340.8155      629.53516      439898.24      0.63723009    -77525.508      4317.4794     -73208.029    
     61900   3340.7748     -298.48806      439945.55      0.63716156    -77537.499      4317.4267     -73220.073    
     62000   3338.309       79.909388      439990.33      0.63709673    -77545.495      4314.24       -73231.255    
     62100   3336.7623      392.59661      440034.19      0.63703322    -77555.968      4312.2412     -73243.727    
     62200   3352.352       394.13492      440077.76      0.63697016    -77587.33       4332.3885     -73254.941    
     62300   3339.0633      270.06056      440120.17      0.63690877    -77582.814      4315.2149     -73267.599    
     62400   3339.681       409.57728      440158.93      0.63685269    -77595.967      4316.0132     -73279.954    
     62500   3350.5874     -112.29066      440198.32      0.6367957     -77622.684      4330.108      -73292.576    
[...]
    984400   3003.7038      388.62936      274090.51      1.0227147     -78905.224      3881.8154     -75023.409    
    984500   3014.286      -1057.2524      274073.33      1.0227788     -78918.456      3895.4912     -75022.965    
    984600   3023.6482     -557.16616      274053.84      1.0228515     -78929.505      3907.5904     -75021.914    
    984700   3008.722      -212.66782      274031.55      1.0229347     -78909.754      3888.3006     -75021.453    
    984800   2995.8532      376.98682      274006.99      1.0230264     -78893.079      3871.6697     -75021.41     
    984900   2981.3471     -564.04273      273981.15      1.0231229     -78875.291      3852.9229     -75022.368    
    985000   3042.1774     -188.58933      273956.07      1.0232166     -78954.379      3931.5364     -75022.843    
    985100   3015.813       457.46706      273931.55      1.0233082     -78919.88       3897.4646     -75022.415    
    985200   3022.9383      912.10749      273906.46      1.0234019     -78928.076      3906.673      -75021.403    
    985300   3024.8967      1908.1775      273880.22      1.0235        -78931.111      3909.2038     -75021.907    
    985400   3033.4946     -112.35073      273856.65      1.0235881     -78941.708      3920.3154     -75021.393    
    985500   3045.5339      446.46953      273833.14      1.0236759     -78956.739      3935.8742     -75020.865    
    985600   3053.8456     -635.97032      273811.06      1.0237585     -78965.626      3946.6157     -75019.01     
    985700   3027.7448     -79.1467        273788.21      1.0238439     -78931.732      3912.8846     -75018.847    
    985800   3019.516       114.22004      273765.84      1.0239276     -78920.026      3902.2502     -75017.776    
    985900   3025.8329      422.77231      273743.95      1.0240095     -78929.343      3910.4137     -75018.929    
    986000   3037.1567     -498.98404      273722.95      1.024088      -78943.122      3925.048      -75018.074    
    986100   3024.7432     -67.601816      273701.92      1.0241667     -78927.357      3909.0055     -75018.352    
    986200   3030.3047      1025.6835      273680.32      1.0242475     -78933.619      3916.1928     -75017.426    
    986300   3022.8975      1037.1658      273660         1.0243236     -78924.985      3906.6202     -75018.365    
    986400   3032.8893     -1095.6028      273640.09      1.0243981     -78937.29       3919.5331     -75017.757    
    986500   3060.3461      133.08455      273620.05      1.0244732     -78974.055      3955.0166     -75019.039    
    986600   3050.4762      221.58826      273600.4       1.0245467     -78961.198      3942.2614     -75018.936    
    986700   3076.436      -1.3046312      273580.23      1.0246223     -78994.52       3975.8103     -75018.71     
    986800   3034.1776      141.82419      273559.46      1.0247001     -78939.521      3921.198      -75018.323    
    986900   3028.2234      704.10477      273540.66      1.0247705     -78932.12       3913.5032     -75018.617    
    987000   3059.8647     -171.60888      273524.41      1.0248314     -78972.358      3954.3945     -75017.963    
    987100   3031.1579     -248.4525       273510.55      1.0248833     -78933.408      3917.2955     -75016.112    
    987200   3024.9698      636.66065      273498.97      1.0249267     -78924.871      3909.2983     -75015.573    
    987300   3035.7614      321.86136      273488.02      1.0249677     -78938.731      3923.2448     -75015.486    
    987400   3020.8227     -85.937432      273476.56      1.0250107     -78919.075      3903.9388     -75015.136    
    987500   3045.637      -379.23124      273464.87      1.0250545     -78951.416      3936.0074     -75015.408    
    987600   3023.2079     -108.41874      273454.13      1.0250948     -78921.907      3907.0213     -75014.886    
    987700   3023.3685     -65.841772      273442.93      1.0251368     -78922.77       3907.2289     -75015.541    
    987800   3053.1241      214.36043      273428.29      1.0251916     -78960.693      3945.6833     -75015.01     
    987900   3019.8103     -431.44225      273412.4       1.0252512     -78918.18       3902.6305     -75015.549    
    988000   3016.2567      789.2306       273395.84      1.0253133     -78913.159      3898.038      -75015.121    
    988100   3041.0615     -275.39613      273380.06      1.0253725     -78945.436      3930.0943     -75015.342    
    988200   3034.2705      903.67253      273364.35      1.0254314     -78936.957      3921.318      -75015.639    
    988300   3021.4761     -681.14345      273350.51      1.0254834     -78920.951      3904.7832     -75016.168    
    988400   3062.7969      491.58047      273336.17      1.0255371     -78973.67       3958.1839     -75015.486    
    988500   3030.2138      229.90676      273322.81      1.0255873     -78930.707      3916.0754     -75014.632    
    988600   3014.1734     -117.63643      273309.37      1.0256377     -78910.058      3895.3457     -75014.712    
    988700   3051.5618     -126.46198      273296.86      1.0256846     -78957.757      3943.6643     -75014.093    
    988800   3023.0909     -147.84404      273282.85      1.0257372     -78921.418      3906.8702     -75014.547    
    988900   3047.4325     -19.911926      273268.23      1.0257921     -78953.508      3938.3278     -75015.181    
    989000   3067.3585      45.166723      273254.29      1.0258445     -78979.623      3964.079      -75015.544    
    989100   3040.8481     -231.15821      273244.31      1.0258819     -78945.163      3929.8186     -75015.345    
    989200   3042.4037     -693.87453      273235.06      1.0259166     -78947.743      3931.8289     -75015.914    
    989300   3051.6131      1721.6545      273225.68      1.0259519     -78960.23       3943.7306     -75016.5      
    989400   3027.0926      204.05551      273217.55      1.0259824     -78928.05       3912.0418     -75016.008    
    989500   3029.352       239.11687      273209.21      1.0260137     -78930.283      3914.9617     -75015.322    
    989600   3052.5044      168.66213      273201.96      1.0260409     -78961.088      3944.8825     -75016.205    
    989700   3032.6625     -1567.4867      273195.54      1.0260651     -78934.469      3919.2399     -75015.229    
    989800   3014.3656      1334.876       273184.76      1.0261055     -78910.906      3895.594      -75015.312    
    989900   3022.7575      200.55028      273174.3       1.0261448     -78921.293      3906.4393     -75014.853    
    990000   3004.757       501.54471      273164.23      1.0261827     -78898.543      3883.1765     -75015.367    
    990100   3045.8772     -690.32929      273153.2       1.0262241     -78951.885      3936.3178     -75015.567    
    990200   3035.4486     -233.03139      273140.53      1.0262717     -78938.746      3922.8405     -75015.905    
    990300   3045.3862      358.20123      273127.25      1.0263216     -78951.594      3935.6834     -75015.911    
    990400   3043.0624      1189.4717      273114.09      1.026371      -78949.211      3932.6802     -75016.531    
    990500   3018.0526      39.831966      273102.44      1.0264148     -78915.459      3900.3589     -75015.101    
    990600   3009.54        427.3968       273091.53      1.0264558     -78903.555      3889.3577     -75014.197    
    990700   3037.3794      1623.4755      273078.73      1.0265039     -78938.798      3925.3358     -75013.462    
    990800   3030.0105      526.14314      273065.69      1.026553      -78929.693      3915.8126     -75013.88     
    990900   3022.6193     -373.46743      273050.97      1.0266083     -78920.307      3906.2607     -75014.046    
    991000   3011.7505     -1211.8577      273035.29      1.0266673     -78906.649      3892.2144     -75014.435    
    991100   3062.6776      490.12776      273017.25      1.0267351     -78973.154      3958.0297     -75015.125    
    991200   3018.1941     -106.85937      272999.12      1.0268033     -78915.453      3900.5419     -75014.911    
    991300   3047.2369     -896.84176      272978.95      1.0268792     -78953.4        3938.0751     -75015.325    
    991400   3015.0617     -231.84582      272956.65      1.026963      -78911.697      3896.4937     -75015.203    
    991500   3007.459      -17.100162      272932.76      1.027053      -78903.221      3886.6684     -75016.552    
    991600   3051.5662      507.48106      272908.25      1.0271452     -78961.504      3943.67       -75017.834    
    991700   3046.757       1743.3172      272886.14      1.0272284     -78955.582      3937.4549     -75018.127    
    991800   3013.7869      248.71761      272866.75      1.0273014     -78912.317      3894.8461     -75017.47     
    991900   3030.5666      536.38998      272846.72      1.0273768     -78933.707      3916.5313     -75017.176    
    992000   3027.4251     -1240.7959      272826.26      1.0274539     -78929.908      3912.4714     -75017.437    
    992100   3028.4554      219.89942      272802.92      1.0275418     -78931.789      3913.8029     -75017.986    
    992200   3013.0013     -356.03061      272779.8       1.0276289     -78912.158      3893.8309     -75018.327    
    992300   3039.8998     -241.18868      272757.74      1.027712      -78946.867      3928.5931     -75018.274    
    992400   3026.601      -32.305388      272736.35      1.0277926     -78930.018      3911.4064     -75018.611    
    992500   3014.9811     -304.51989      272713.75      1.0278778     -78915.695      3896.3895     -75019.305    
    992600   3004.4721     -1756.3965      272689.7       1.0279684     -78902.685      3882.8083     -75019.877    
    992700   3033.8111      896.79372      272664.69      1.0280627     -78940.816      3920.7243     -75020.092    
    992800   3010.8915      575.74135      272638.68      1.0281608     -78910.949      3891.1043     -75019.844    
    992900   3041.2448      293.98253      272612.72      1.0282587     -78949.991      3930.3313     -75019.66     
    993000   3018.0155     -505.101        272585.5       1.0283614     -78920.317      3900.3109     -75020.006    
    993100   3037.0988     -504.68492      272556.2       1.0284719     -78946.332      3924.9732     -75021.359    
    993200   3020.9638     -388.53278      272525.84      1.0285865     -78926.048      3904.1212     -75021.927    
    993300   3062.8577      755.00528      272493.97      1.0287068     -78980.493      3958.2625     -75022.231    
    993400   3052.5545     -279.80452      272461.71      1.0288286     -78968.321      3944.9472     -75023.374    
    993500   3035.0063     -474.71386      272429.33      1.0289509     -78944.659      3922.2689     -75022.39     
    993600   3040.9487      363.87745      272398.36      1.0290679     -78953.138      3929.9485     -75023.189    
    993700   3050.7442      1007.6863      272367.12      1.0291859     -78966.091      3942.6077     -75023.483    
    993800   3030.4465      862.20026      272337.17      1.0292991     -78939.489      3916.3762     -75023.113    
    993900   3045.978       448.90375      272306.81      1.0294138     -78959.693      3936.4481     -75023.245    
    994000   3050.5706     -801.41223      272276.29      1.0295292     -78966.577      3942.3833     -75024.194    
    994100   3015.5961      1735.4719      272245.06      1.0296473     -78921.71       3897.1843     -75024.526    
    994200   3010.7216      628.50785      272216.98      1.0297535     -78916.582      3890.8847     -75025.697    
    994300   3016.8072      1239.4654      272190.37      1.0298542     -78925.214      3898.7495     -75026.465    
    994400   3023.6045     -333.06834      272162.99      1.0299578     -78934.784      3907.534      -75027.251    
    994500   3034.6985     -688.19906      272134.44      1.0300658     -78950.038      3921.8711     -75028.167    
    994600   3072.2781      1054.2368      272106.13      1.030173      -78999.536      3970.4369     -75029.099    
    994700   3067.5734     -864.80677      272079.52      1.0302738     -78993.766      3964.3568     -75029.409    
    994800   3042.8676     -790.10095      272052.17      1.0303774     -78962.183      3932.4284     -75029.755    
    994900   3043.1658      1840.773       272024.93      1.0304805     -78962.379      3932.8138     -75029.565    
    995000   3024.2153     -582.11715      271999.22      1.030578      -78937.93       3908.3233     -75029.606    
    995100   3045.4352     -218.1776       271971.96      1.0306812     -78965.087      3935.7466     -75029.34     
    995200   3034.1943      1050.7827      271944.57      1.0307851     -78950.975      3921.2195     -75029.755    
    995300   3054.9226      56.31306       271917.69      1.030887      -78978.314      3948.0077     -75030.306    
    995400   3027.2905      53.926731      271890.13      1.0309915     -78943.223      3912.2975     -75030.926    
    995500   3015.0993     -408.8501       271862.58      1.0310959     -78926          3896.5423     -75029.458    
    995600   3032.1611     -1169.6854      271833.45      1.0312064     -78947.92       3918.592      -75029.328    
    995700   3029.982      -1010.8074      271801.73      1.0313268     -78945.649      3915.7758     -75029.873    
    995800   3006.0425     -906.46072      271768.11      1.0314543     -78916.014      3884.8378     -75031.176    
    995900   3034.2771     -20.685728      271732.58      1.0315892     -78953.62       3921.3266     -75032.293    
    996000   3017.7542      200.76636      271697.1       1.0317239     -78932.392      3899.9733     -75032.418    
    996100   3015.6933     -1586.0291      271658.94      1.0318689     -78931.191      3897.3099     -75033.881    
    996200   3030.7185     -733.54114      271618.11      1.032024      -78950.562      3916.7276     -75033.834    
    996300   3057.1596     -1287.6973      271574.83      1.0321884     -78986.367      3950.8987     -75035.468    
    996400   3055.6263      303.7897       271530.63      1.0323565     -78985.106      3948.917      -75036.189    
    996500   3041.5153     -95.341955      271485.72      1.0325272     -78967.181      3930.6809     -75036.5      
    996600   3027.3711      1258.0732      271440.41      1.0326996     -78949.775      3912.4016     -75037.374    
    996700   3033.8917      397.27211      271394.28      1.0328751     -78959.424      3920.8285     -75038.595    
    996800   3012.4071      1034.7689      271349.29      1.0330464     -78932.781      3893.063      -75039.718    
    996900   2994.666      -1.9959261      271306.65      1.0332087     -78908.973      3870.1354     -75038.837    
    997000   3028.04       -123.96121      271263.31      1.0333738     -78952.371      3913.266      -75039.105    
    997100   3061.5617     -313.59366      271219.48      1.0335408     -78997          3956.5877     -75040.412    
    997200   3022.6887      1036.8423      271175.06      1.0337101     -78948.201      3906.3503     -75041.851    
    997300   3028.7363     -560.47204      271129.5       1.0338838     -78955.783      3914.1659     -75041.617    
    997400   3021.519       924.6515       271082.98      1.0340612     -78947.359      3904.8387     -75042.52     
    997500   3023.5816     -530.50811      271038.34      1.0342315     -78950.586      3907.5043     -75043.082    
    997600   3013.1696     -858.31051      270992.3       1.0344072     -78937.04       3894.0485     -75042.992    
    997700   3008.8859      1127.4732      270944.89      1.0345882     -78932.832      3888.5125     -75044.319    
    997800   3043.1697     -418.16225      270897.84      1.0347679     -78977.447      3932.8188     -75044.628    
    997900   3069.1173     -124.33601      270850.74      1.0349479     -79012.903      3966.352      -75046.551    
    998000   3025.6025      2315.349       270802.99      1.0351304     -78956.393      3910.1161     -75046.277    
    998100   2998.5948     -719.89016      270755.51      1.0353119     -78922.229      3875.2127     -75047.016    
    998200   3010.9588     -653.22304      270707.27      1.0354964     -78939.564      3891.1913     -75048.373    
    998300   3006.7602     -259.22217      270658.18      1.0356842     -78934.837      3885.7653     -75049.072    
    998400   3022.6235      502.35758      270609.07      1.0358722     -78955.319      3906.2661     -75049.053    
    998500   3021.4511      5.2818068      270560.86      1.0360567     -78954.472      3904.751      -75049.721    
    998600   3041.0323     -688.73995      270513.38      1.0362386     -78981.148      3930.0566     -75051.091    
    998700   3033.5144      2366.5641      270467.99      1.0364125     -78973.514      3920.3409     -75053.173    
    998800   3027.0597     -416.22057      270424.17      1.0365804     -78965.71       3911.9992     -75053.711    
    998900   3027.1665     -490.80479      270380.07      1.0367495     -78965.744      3912.1372     -75053.607    
    999000   3033.2093      166.94346      270335.25      1.0369214     -78974.624      3919.9466     -75054.677    
    999100   3044.6918      629.89528      270291.2       1.0370904     -78989.918      3934.7859     -75055.133    
    999200   3044.8217     -392.45849      270245.2       1.0372669     -78990.041      3934.9538     -75055.087    
    999300   2989.0885     -601.50514      270198.02      1.037448      -78918.462      3862.9274     -75055.535    
    999400   3011.7905     -648.59796      270151.66      1.037626      -78949.628      3892.2661     -75057.362    
    999500   3021.7748      578.56597      270103.87      1.0378096     -78964.095      3905.1693     -75058.926    
    999600   3049.3732      176.44138      270055.45      1.0379957     -79000.675      3940.8359     -75059.839    
    999700   3008.722       1541.4747      270008.94      1.0381745     -78949.247      3888.3006     -75060.946    
    999800   3027.6048      12.645286      269964.72      1.0383446     -78974.324      3912.7037     -75061.62     
    999900   3040.933       1098.3857      269921.02      1.0385127     -78993.278      3929.9283     -75063.35     
   1000000   3012.3378     -593.59837      269882.58      1.0386606     -78956.188      3892.9735     -75063.215    
Loop time of 38839 on 16 procs for 1000000 steps with 9999 atoms

Performance: 2.225 ns/day, 10.789 hours/ns, 25.747 timesteps/s, 257.447 katom-step/s
99.7% CPU use with 16 MPI tasks x 1 OpenMP threads

MPI task timing breakdown:
Section |  min time  |  avg time  |  max time  |%varavg| %total
---------------------------------------------------------------
Pair    | 4035.3     | 5520.8     | 7135.3     |1140.0 | 14.21
Kspace  | 25486      | 27966      | 29419      | 657.0 | 72.01
Neigh   | 421.84     | 563.04     | 716.75     | 344.7 |  1.45
Comm    | 1552.6     | 4437.5     | 8541       |2924.0 | 11.43
Output  | 0.49719    | 0.51299    | 0.65781    |   5.2 |  0.00
Modify  | 331.7      | 336.22     | 343.11     |  17.1 |  0.87
Other   |            | 14.65      |            |       |  0.04

Nlocal:        624.938 ave         714 max         527 min
Histogram: 2 0 1 1 4 0 4 2 1 1
Nghost:        6244.31 ave        6360 max        6112 min
Histogram: 3 1 0 1 1 2 2 4 1 1
Neighs:         174920 ave      216554 max      132168 min
Histogram: 1 1 1 3 1 3 3 1 1 1

Total # of neighbors = 2798722
Ave neighs/atom = 279.90019
Neighbor list builds = 100000
Dangerous builds = 100000

# write files
# for writing the final results
write_restart    xx.dat
System init for write_restart ...
EwaldDisp initialization ...
Generated 0 of 6 mixed pair_coeff terms from geometric mixing rule
  G vector = 0.17970784,   accuracy = 0.0014399645
Generated 0 of 6 mixed pair_coeff terms from geometric mixing rule

# for writing each nsteps steps/track losing
# restart    ${nsteps}  restart_CPS.dat
Total wall time: 10:47:19
